      18
 i =       55, E =       -61.6127844509
  C         7.3629150000        6.8025800000        6.1148800000
  C         8.2334820097        7.7879118505        6.5113178957
  O         7.7379631168        8.4421429294        7.5939733998
  H         9.1891269845        8.1471716695        6.1280166441
  C         9.3792030766        6.0351017222        8.6188423547
  C         6.5584376089        7.8514733810        7.9308262290
  C         6.2741561796        6.8456748071        7.0348359464
  C         5.8161985998        8.4192308110        9.0794824339
  C         8.3462195928        6.0871051940        9.4785677268
  H         7.4955795001        6.1224053217        5.2717930157
  H         5.3859254853        6.2111438670        7.0590097755
  H         6.4999481717        8.6726936524        9.9088129137
  H         5.0827251906        7.6830341484        9.4472840536
  H         5.2642530375        9.3375835181        8.8036806732
  H         7.5523890468        5.3296113547        9.4720174461
  H         8.2656682135        6.8894294916       10.2247850819
  H        10.1726486230        6.7940130141        8.6326527437
  H         9.4684698855        5.2344390081        7.8741179792
