18
Properties=species:S:1:pos:R:3 i=91 E=0.0027939679 pbc="F F F"
C        7.36291500       6.80258000       6.11488000
C        8.45671449       7.50957640       6.71153169
O        7.95774324       8.26273848       7.73120334
H        9.40271862       7.85476196       6.28332918
C        9.25609883       6.16502570       8.46514771
C        6.87725540       7.54043317       8.18882163
C        6.40650568       6.73808039       7.10783458
C        5.96230193       8.28554377       9.08943995
C        8.10206400       6.28653808       9.25811616
H        7.47947234       6.15609022       5.23856629
H        5.51392094       6.11031002       7.12444154
H        6.51437947       8.87711357       9.83686519
H        5.28087333       7.58570258       9.59983724
H        5.35407113       8.96953527       8.47011931
H        7.49679960       5.39295786       9.45888281
H        8.12559069       6.99679578      10.09980458
H       10.09347016       6.85448282       8.64547835
H        9.53842198       5.19625775       8.03622599
