 DBCSR| CPU Multiplication driver                                           BLAS
 DBCSR| Multrec recursion limit                                              512
 DBCSR| Multiplication stack size                                           1000
 DBCSR| Maximum elements for images                                    UNLIMITED
 DBCSR| Multiplicative factor virtual images                                   1
 DBCSR| Use multiplication densification                                       T
 DBCSR| Multiplication size stacks                                             3
 DBCSR| Use memory pool for CPU allocation                                     F
 DBCSR| Number of 3D layers                                               SINGLE
 DBCSR| Use MPI memory allocation                                              F
 DBCSR| Use RMA algorithm                                                      F
 DBCSR| Use Communication thread                                               T
 DBCSR| Communication thread load                                             87
 DBCSR| MPI: My node id                                                        0
 DBCSR| MPI: Number of nodes                                                 120
 DBCSR| OMP: Current number of threads                                         1
 DBCSR| OMP: Max number of threads                                             1
 DBCSR| Split modifier for TAS multiplication algorithm                  1.0E+00


  **** **** ******  **  PROGRAM STARTED AT               2022-06-16 08:01:59.628
 ***** ** ***  *** **   PROGRAM STARTED ON           Orion-17-54.HPC.MsState.Edu
 **    ****   ******    PROGRAM STARTED BY                                 wnw36
 ***** **    ** ** **   PROGRAM PROCESS ID                                441399
  **** **  *******  **  PROGRAM STARTED IN /work/hpc/users/wnw36/MSU-DFT-Catalys
                                           is-School/4_Surfaces-With-Adsorbates/
                                           Pt/5_H2O2

 CP2K| version string:                                          CP2K version 8.2
 CP2K| source code revision number:                                  git:310b7ab
 CP2K| cp2kflags: omp libint fftw3 libxc parallel mpi3 scalapack max_contr=4 plu
 CP2K|            med2 mkl check_diag
 CP2K| is freely available from                            https://www.cp2k.org/
 CP2K| Program compiled at                           Wed Nov 3 09:08:23 CDT 2021
 CP2K| Program compiled on                         Orion-devel-2.HPC.MsState.Edu
 CP2K| Program compiled for                                   Linux-x86-64-intel
 CP2K| Data directory path                      /apps/contrib/cp2k/cp2k/8.2/data
 CP2K| Input file name                                                  cp2k.inp
 
 GLOBAL| Force Environment number                                              1
 GLOBAL| Basis set file name                                           BASIS_SET
 GLOBAL| Potential file name                                      GTH_POTENTIALS
 GLOBAL| MM Potential file name                                     MM_POTENTIAL
 GLOBAL| Coordinate file name                                      __STD_INPUT__
 GLOBAL| Method name                                                        CP2K
 GLOBAL| Project name                                                 Pt111-H2O2
 GLOBAL| Run type                                                             MD
 GLOBAL| FFT library                                                       FFTW3
 GLOBAL| Diagonalization library                                       ScaLAPACK
 GLOBAL| Orthonormality check for eigenvectors enabled                 5.000E-14
 GLOBAL| Matrix multiplication library                                    SCALAP
 GLOBAL| All-to-all communication in single precision                          F
 GLOBAL| FFTs using library dependent lengths                                  F
 GLOBAL| Grid backend                                                       AUTO
 GLOBAL| Global print level                                               MEDIUM
 GLOBAL| MPI I/O enabled                                                       T
 GLOBAL| Total number of message passing processes                           120
 GLOBAL| Number of threads for this process                                    1
 GLOBAL| This output is from process                                           0
 GLOBAL| CPU model name                 Intel(R) Xeon(R) Gold 6148 CPU @ 2.40GHz
 GLOBAL| CPUID                                                              1003

 MEMORY| system memory details [Kb]
 MEMORY|                        rank 0           min           max       average
 MEMORY| MemTotal            196442648     196434468     196442664     196439926
 MEMORY| MemFree             178459528     178124772     179205320     178596540
 MEMORY| Buffers                    20             4           104            42
 MEMORY| Cached                3520492       2989668       3520492       3317468
 MEMORY| Slab                  2411604       2242964       2781548       2478705
 MEMORY| SReclaimable           600584        404848       1029248        678226
 MEMORY| MemLikelyFree       182580624     182580624     182599840     182592277


 *** Fundamental physical constants (SI units) ***

 *** Literature: B. J. Mohr and B. N. Taylor,
 ***             CODATA recommended values of the fundamental physical
 ***             constants: 2006, Web Version 5.1
 ***             http://physics.nist.gov/constants

 Speed of light in vacuum [m/s]                             2.99792458000000E+08
 Magnetic constant or permeability of vacuum [N/A**2]       1.25663706143592E-06
 Electric constant or permittivity of vacuum [F/m]          8.85418781762039E-12
 Planck constant (h) [J*s]                                  6.62606896000000E-34
 Planck constant (h-bar) [J*s]                              1.05457162825177E-34
 Elementary charge [C]                                      1.60217648700000E-19
 Electron mass [kg]                                         9.10938215000000E-31
 Electron g factor [ ]                                     -2.00231930436220E+00
 Proton mass [kg]                                           1.67262163700000E-27
 Fine-structure constant                                    7.29735253760000E-03
 Rydberg constant [1/m]                                     1.09737315685270E+07
 Avogadro constant [1/mol]                                  6.02214179000000E+23
 Boltzmann constant [J/K]                                   1.38065040000000E-23
 Atomic mass unit [kg]                                      1.66053878200000E-27
 Bohr radius [m]                                            5.29177208590000E-11

 *** Conversion factors ***

 [u] -> [a.u.]                                              1.82288848426455E+03
 [Angstrom] -> [Bohr] = [a.u.]                              1.88972613288564E+00
 [a.u.] = [Bohr] -> [Angstrom]                              5.29177208590000E-01
 [a.u.] -> [s]                                              2.41888432650478E-17
 [a.u.] -> [fs]                                             2.41888432650478E-02
 [a.u.] -> [J]                                              4.35974393937059E-18
 [a.u.] -> [N]                                              8.23872205491840E-08
 [a.u.] -> [K]                                              3.15774647902944E+05
 [a.u.] -> [kJ/mol]                                         2.62549961709828E+03
 [a.u.] -> [kcal/mol]                                       6.27509468713739E+02
 [a.u.] -> [Pa]                                             2.94210107994716E+13
 [a.u.] -> [bar]                                            2.94210107994716E+08
 [a.u.] -> [atm]                                            2.90362800883016E+08
 [a.u.] -> [eV]                                             2.72113838565563E+01
 [a.u.] -> [Hz]                                             6.57968392072181E+15
 [a.u.] -> [1/cm] (wave numbers)                            2.19474631370540E+05
 [a.u./Bohr**2] -> [1/cm]                                   5.14048714338585E+03
 

 CELL_TOP| Volume [angstrom^3]:                                      1598.805915
 CELL_TOP| Vector a [angstrom    11.248     0.000     0.000   |a| =    11.248004
 CELL_TOP| Vector b [angstrom     5.624     9.741     0.000   |b| =    11.248004
 CELL_TOP| Vector c [angstrom     0.000     0.000    14.592   |c| =    14.591978
 CELL_TOP| Angle (b,c), alpha [degree]:                                90.000000
 CELL_TOP| Angle (a,c), beta  [degree]:                                90.000000
 CELL_TOP| Angle (a,b), gamma [degree]:                                60.000000
 CELL_TOP| Numerically orthorhombic:                                          NO
 
 GENERATE|  Preliminary Number of Bonds generated:                             0
 GENERATE|  Achieved consistency in connectivity generation.

 CELL| Volume [angstrom^3]:                                          1598.805915
 CELL| Vector a [angstrom]:      11.248     0.000     0.000   |a| =    11.248004
 CELL| Vector b [angstrom]:       5.624     9.741     0.000   |b| =    11.248004
 CELL| Vector c [angstrom]:       0.000     0.000    14.592   |c| =    14.591978
 CELL| Angle (b,c), alpha [degree]:                                    90.000000
 CELL| Angle (a,c), beta  [degree]:                                    90.000000
 CELL| Angle (a,b), gamma [degree]:                                    60.000000
 CELL| Numerically orthorhombic:                                              NO

 CELL_REF| Volume [angstrom^3]:                                      1598.805915
 CELL_REF| Vector a [angstrom    11.248     0.000     0.000   |a| =    11.248004
 CELL_REF| Vector b [angstrom     5.624     9.741     0.000   |b| =    11.248004
 CELL_REF| Vector c [angstrom     0.000     0.000    14.592   |c| =    14.591978
 CELL_REF| Angle (b,c), alpha [degree]:                                90.000000
 CELL_REF| Angle (a,c), beta  [degree]:                                90.000000
 CELL_REF| Angle (a,b), gamma [degree]:                                60.000000
 CELL_REF| Numerically orthorhombic:                                          NO

 *******************************************************************************
 *******************************************************************************
 **                                                                           **
 **     #####                         ##              ##                      **
 **    ##   ##            ##          ##              ##                      **
 **   ##     ##                       ##            ######                    **
 **   ##     ##  ##   ##  ##   #####  ##  ##   ####   ##    #####    #####    **
 **   ##     ##  ##   ##  ##  ##      ## ##   ##      ##   ##   ##  ##   ##   **
 **   ##  ## ##  ##   ##  ##  ##      ####     ###    ##   ######   ######    **
 **    ##  ###   ##   ##  ##  ##      ## ##      ##   ##   ##       ##        **
 **     #######   #####   ##   #####  ##  ##  ####    ##    #####   ##        **
 **           ##                                                    ##        **
 **                                                                           **
 **                                                ... make the atoms dance   **
 **                                                                           **
 **            Copyright (C) by CP2K developers group (2000-2021)             **
 **                      J. Chem. Phys. 152, 194103 (2020)                    **
 **                                                                           **
 *******************************************************************************

 DFT| Spin unrestricted (spin-polarized) Kohn-Sham calculation               UKS
 DFT| Multiplicity                                                             1
 DFT| Number of spin states                                                    2
 DFT| Charge                                                                   0
 DFT| Self-interaction correction (SIC)                                       NO
 DFT| Cutoffs: density                                              1.000000E-10
 DFT|          gradient                                             1.000000E-10
 DFT|          tau                                                  1.000000E-10
 DFT|          cutoff_smoothing_range                               0.000000E+00
 DFT| XC density smoothing                                                  NONE
 DFT| XC derivatives                                                          PW
 FUNCTIONAL| ROUTINE=NEW
 FUNCTIONAL| PADE:
 FUNCTIONAL| S. Goedecker, M. Teter and J. Hutter, Phys. Rev. B 54, 1703 (1996) 

 QS| Method:                                                                 GPW
 QS| Density plane wave grid type                        NON-SPHERICAL FULLSPACE
 QS| Number of grid levels:                                                    4
 QS| Density cutoff [a.u.]:                                                170.0
 QS| Multi grid cutoff [a.u.]: 1) grid level                               170.0
 QS|                           2) grid level                                56.7
 QS|                           3) grid level                                18.9
 QS|                           4) grid level                                 6.3
 QS| Grid level progression factor:                                          3.0
 QS| Relative density cutoff [a.u.]:                                        20.0
 QS| Interaction thresholds: eps_pgf_orb:                                1.0E-05
 QS|                         eps_filter_matrix:                          0.0E+00
 QS|                         eps_core_charge:                            1.0E-12
 QS|                         eps_rho_gspace:                             1.0E-10
 QS|                         eps_rho_rspace:                             1.0E-10
 QS|                         eps_gvg_rspace:                             1.0E-05
 QS|                         eps_ppl:                                    1.0E-02
 QS|                         eps_ppnl:                                   1.0E-07


 ATOMIC KIND INFORMATION

  1. Atomic kind: Pt                                    Number of atoms:      48

     Orbital Basis Set                                              DZV-GTH-PADE

       Number of orbital shell sets:                                           1
       Number of orbital shells:                                               7
       Number of primitive Cartesian functions:                                5
       Number of Cartesian basis functions:                                   21
       Number of spherical basis functions:                                   19
       Norm type:                                                              2

       Normalised Cartesian orbitals:

                        Set   Shell   Orbital            Exponent    Coefficient

                          1       1    5s                3.853990       1.284223
                                                         1.761529      -0.955061
                                                         0.798476      -0.354894
                                                         0.306400      -0.012294
                                                         0.090551       0.000118

                          1       2    6s                3.853990      -0.206176
                                                         1.761529       0.152739
                                                         0.798476       0.365439
                                                         0.306400      -0.073141
                                                         0.090551      -0.118192

                          1       3    7s                3.853990       0.000000
                                                         1.761529       0.000000
                                                         0.798476       0.000000
                                                         0.306400       0.000000
                                                         0.090551       0.117647

                          1       4    6px               3.853990       0.779848
                                                         1.761529      -1.320402
                                                         0.798476      -0.635344
                                                         0.306400      -0.029940
                                                         0.090551       0.000021
                          1       4    6py               3.853990       0.779848
                                                         1.761529      -1.320402
                                                         0.798476      -0.635344
                                                         0.306400      -0.029940
                                                         0.090551       0.000021
                          1       4    6pz               3.853990       0.779848
                                                         1.761529      -1.320402
                                                         0.798476      -0.635344
                                                         0.306400      -0.029940
                                                         0.090551       0.000021

                          1       5    7px               3.853990       0.000000
                                                         1.761529       0.000000
                                                         0.798476       0.000000
                                                         0.306400       0.324938
                                                         0.090551       0.000000
                          1       5    7py               3.853990       0.000000
                                                         1.761529       0.000000
                                                         0.798476       0.000000
                                                         0.306400       0.324938
                                                         0.090551       0.000000
                          1       5    7pz               3.853990       0.000000
                                                         1.761529       0.000000
                                                         0.798476       0.000000
                                                         0.306400       0.324938
                                                         0.090551       0.000000

                          1       6    7dx2              3.853990       1.322239
                                                         1.761529      -1.321302
                                                         0.798476      -0.473688
                                                         0.306400      -0.086328
                                                         0.090551      -0.003392
                          1       6    7dxy              3.853990       2.290185
                                                         1.761529      -2.288562
                                                         0.798476      -0.820452
                                                         0.306400      -0.149524
                                                         0.090551      -0.005875
                          1       6    7dxz              3.853990       2.290185
                                                         1.761529      -2.288562
                                                         0.798476      -0.820452
                                                         0.306400      -0.149524
                                                         0.090551      -0.005875
                          1       6    7dy2              3.853990       1.322239
                                                         1.761529      -1.321302
                                                         0.798476      -0.473688
                                                         0.306400      -0.086328
                                                         0.090551      -0.003392
                          1       6    7dyz              3.853990       2.290185
                                                         1.761529      -2.288562
                                                         0.798476      -0.820452
                                                         0.306400      -0.149524
                                                         0.090551      -0.005875
                          1       6    7dz2              3.853990       1.322239
                                                         1.761529      -1.321302
                                                         0.798476      -0.473688
                                                         0.306400      -0.086328
                                                         0.090551      -0.003392

                          1       7    8dx2              3.853990       0.000000
                                                         1.761529       0.000000
                                                         0.798476       1.110113
                                                         0.306400       0.000000
                                                         0.090551       0.000000
                          1       7    8dxy              3.853990       0.000000
                                                         1.761529       0.000000
                                                         0.798476       1.922772
                                                         0.306400       0.000000
                                                         0.090551       0.000000
                          1       7    8dxz              3.853990       0.000000
                                                         1.761529       0.000000
                                                         0.798476       1.922772
                                                         0.306400       0.000000
                                                         0.090551       0.000000
                          1       7    8dy2              3.853990       0.000000
                                                         1.761529       0.000000
                                                         0.798476       1.110113
                                                         0.306400       0.000000
                                                         0.090551       0.000000
                          1       7    8dyz              3.853990       0.000000
                                                         1.761529       0.000000
                                                         0.798476       1.922772
                                                         0.306400       0.000000
                                                         0.090551       0.000000
                          1       7    8dz2              3.853990       0.000000
                                                         1.761529       0.000000
                                                         0.798476       1.110113
                                                         0.306400       0.000000
                                                         0.090551       0.000000

       Atomic covalent radius [Angstrom]:                                  1.300

       Atomic van der Waals radius [Angstrom]:                             1.750

     GTH Potential information for                                  GTH-PADE-q18

       Description:                       Goedecker-Teter-Hutter pseudopotential
                                           Goedecker et al., PRB 54, 1703 (1996)
                                          Hartwigsen et al., PRB 58, 3641 (1998)
                                                      Krack, TCA 114, 145 (2005)

       Gaussian exponent of the core charge distribution:               2.000000
       Electronic configuration (s p d ...):                           3   6   9

       Parameters of the local part of the GTH pseudopotential:

                          rloc        C1          C2          C3          C4
                        0.500000    5.445832    1.156382

       Parameters of the non-local part of the GTH pseudopotential:

                   l      r(l)      h(i,j,l)

                   0    0.409942    2.994366    2.884897    1.035209
                                    2.884897   -7.448772   -2.672899
                                    1.035209   -2.672899    4.243095
                   1    0.398652   -0.225181    1.596063
                                    1.596063   -3.776974
                   2    0.367964    0.632067    2.537907
                                    2.537907   -5.755431

  2. Atomic kind: O                                     Number of atoms:       2

     Orbital Basis Set                                             DZVP-GTH-PADE

       Number of orbital shell sets:                                           2
       Number of orbital shells:                                               5
       Number of primitive Cartesian functions:                                5
       Number of Cartesian basis functions:                                   14
       Number of spherical basis functions:                                   13
       Norm type:                                                              2

       Normalised Cartesian orbitals:

                        Set   Shell   Orbital            Exponent    Coefficient

                          1       1    2s                8.304404       0.526521
                                                         2.457945      -0.055011
                                                         0.759736      -0.404341
                                                         0.213639      -0.086026

                          1       2    3s                8.304404       0.000000
                                                         2.457945       0.000000
                                                         0.759736       0.000000
                                                         0.213639       0.223960

                          1       3    3px               8.304404      -2.000758
                                                         2.457945      -1.321077
                                                         0.759736      -0.480331
                                                         0.213639      -0.078647
                          1       3    3py               8.304404      -2.000758
                                                         2.457945      -1.321077
                                                         0.759736      -0.480331
                                                         0.213639      -0.078647
                          1       3    3pz               8.304404      -2.000758
                                                         2.457945      -1.321077
                                                         0.759736      -0.480331
                                                         0.213639      -0.078647

                          1       4    4px               8.304404       0.000000
                                                         2.457945       0.000000
                                                         0.759736       0.000000
                                                         0.213639       0.207033
                          1       4    4py               8.304404       0.000000
                                                         2.457945       0.000000
                                                         0.759736       0.000000
                                                         0.213639       0.207033
                          1       4    4pz               8.304404       0.000000
                                                         2.457945       0.000000
                                                         0.759736       0.000000
                                                         0.213639       0.207033

                          2       1    3dx2              0.800000       1.113825
                          2       1    3dxy              0.800000       1.929201
                          2       1    3dxz              0.800000       1.929201
                          2       1    3dy2              0.800000       1.113825
                          2       1    3dyz              0.800000       1.929201
                          2       1    3dz2              0.800000       1.113825

       Atomic covalent radius [Angstrom]:                                  0.730

       Atomic van der Waals radius [Angstrom]:                             1.520

     GTH Potential information for                                   GTH-PADE-q6

       Description:                       Goedecker-Teter-Hutter pseudopotential
                                           Goedecker et al., PRB 54, 1703 (1996)
                                          Hartwigsen et al., PRB 58, 3641 (1998)
                                                      Krack, TCA 114, 145 (2005)

       Gaussian exponent of the core charge distribution:               8.154466
       Electronic configuration (s p d ...):                               2   4

       Parameters of the local part of the GTH pseudopotential:

                          rloc        C1          C2          C3          C4
                        0.247621  -16.580318    2.395701

       Parameters of the non-local part of the GTH pseudopotential:

                   l      r(l)      h(i,j,l)

                   0    0.221786   18.266917
                   1    0.256829

  3. Atomic kind: H                                     Number of atoms:       2

     Orbital Basis Set                                             DZVP-GTH-PADE

       Number of orbital shell sets:                                           2
       Number of orbital shells:                                               3
       Number of primitive Cartesian functions:                                5
       Number of Cartesian basis functions:                                    5
       Number of spherical basis functions:                                    5
       Norm type:                                                              2

       Normalised Cartesian orbitals:

                        Set   Shell   Orbital            Exponent    Coefficient

                          1       1    1s                8.374435      -0.083834
                                                         1.805868      -0.155208
                                                         0.485253      -0.104875
                                                         0.165824      -0.128813

                          1       2    2s                8.374435       0.000000
                                                         1.805868       0.000000
                                                         0.485253       0.000000
                                                         0.165824       0.185202

                          2       1    2px               0.700000       0.912668
                          2       1    2py               0.700000       0.912668
                          2       1    2pz               0.700000       0.912668

       Atomic covalent radius [Angstrom]:                                  0.320

       Atomic van der Waals radius [Angstrom]:                             1.090

     GTH Potential information for                                   GTH-PADE-q1

       Description:                       Goedecker-Teter-Hutter pseudopotential
                                           Goedecker et al., PRB 54, 1703 (1996)
                                          Hartwigsen et al., PRB 58, 3641 (1998)
                                                      Krack, TCA 114, 145 (2005)

       Gaussian exponent of the core charge distribution:              12.500000
       Electronic configuration (s p d ...):                                   1

       Parameters of the local part of the GTH pseudopotential:

                          rloc        C1          C2          C3          C4
                        0.200000   -4.180237    0.725075


 MOLECULE KIND INFORMATION


 All atoms are their own molecule, skipping detailed information


 TOTAL NUMBERS AND MAXIMUM NUMBERS

  Total number of            - Atomic kinds:                                   3
                             - Atoms:                                         52
                             - Shell sets:                                    56
                             - Shells:                                       352
                             - Primitive Cartesian functions:                260
                             - Cartesian basis functions:                   1046
                             - Spherical basis functions:                    948

  Maximum angular momentum of- Orbital basis functions:                        2
                             - Local part of the GTH pseudopotential:          2
                             - Non-local part of the GTH pseudopotential:      4


 MODULE QUICKSTEP:  ATOMIC COORDINATES IN angstrom

  Atom  Kind  Element       X           Y           Z          Z(eff)       Mass

       1     1 Pt  78    0.000000    0.000000    5.000000     18.0000     195.0840
       2     1 Pt  78    1.406001    2.435264    5.000000     18.0000     195.0840
       3     1 Pt  78    2.812001    0.000000    5.000000     18.0000     195.0840
       4     1 Pt  78    4.218002    2.435264    5.000000     18.0000     195.0840
       5     1 Pt  78    2.812001    4.870529    5.000000     18.0000     195.0840
       6     1 Pt  78    4.218002    7.305793    5.000000     18.0000     195.0840
       7     1 Pt  78    5.624002    4.870529    5.000000     18.0000     195.0840
       8     1 Pt  78    7.030003    7.305793    5.000000     18.0000     195.0840
       9     1 Pt  78    5.624002    0.000000    5.000000     18.0000     195.0840
      10     1 Pt  78    7.030003    2.435264    5.000000     18.0000     195.0840
      11     1 Pt  78    8.436003    0.000000    5.000000     18.0000     195.0840
      12     1 Pt  78    9.842004    2.435264    5.000000     18.0000     195.0840
      13     1 Pt  78    8.436003    4.870529    5.000000     18.0000     195.0840
      14     1 Pt  78    9.842004    7.305793    5.000000     18.0000     195.0840
      15     1 Pt  78   11.248004    4.870529    5.000000     18.0000     195.0840
      16     1 Pt  78   12.654005    7.305793    5.000000     18.0000     195.0840
      17     1 Pt  78    5.625103    3.258211    7.350010     18.0000     195.0840
      18     1 Pt  78    4.215150    0.810866    7.334443     18.0000     195.0840
      19     1 Pt  78    2.820445    3.244756    7.338566     18.0000     195.0840
      20     1 Pt  78    8.437817    8.111344    7.336786     18.0000     195.0840
      21     1 Pt  78    7.034297    5.685465    7.359123     18.0000     195.0840
      22     1 Pt  78    5.633092    8.118064    7.329098     18.0000     195.0840
      23     1 Pt  78   11.255493    3.246601    7.314940     18.0000     195.0840
      24     1 Pt  78    9.845945    0.802804    7.322025     18.0000     195.0840
      25     1 Pt  78    8.456664    3.236457    7.309144     18.0000     195.0840
      26     1 Pt  78   14.062052    8.111297    7.332944     18.0000     195.0840
      27     1 Pt  78   12.663924    5.681748    7.323425     18.0000     195.0840
      28     1 Pt  78   11.246140    8.118975    7.329256     18.0000     195.0840
      29     1 Pt  78    1.411734    0.816667    7.334158     18.0000     195.0840
      30     1 Pt  78    4.220189    5.684529    7.335091     18.0000     195.0840
      31     1 Pt  78    7.025286    0.801686    7.323945     18.0000     195.0840
      32     1 Pt  78    9.852532    5.683672    7.328367     18.0000     195.0840
      33     1 Pt  78    2.828508    1.619957    9.679604     18.0000     195.0840
      34     1 Pt  78    4.223971    4.039852    9.691329     18.0000     195.0840
      35     1 Pt  78    5.625144    1.573891    9.667458     18.0000     195.0840
      36     1 Pt  78    7.031159    3.979814    9.611170     18.0000     195.0840
      37     1 Pt  78    5.620379    6.482510    9.663700     18.0000     195.0840
      38     1 Pt  78    7.035931    8.944139    9.660956     18.0000     195.0840
      39     1 Pt  78    8.454696    6.540599    9.657198     18.0000     195.0840
      40     1 Pt  78    9.863466    8.950336    9.667132     18.0000     195.0840
      41     1 Pt  78    8.478763    1.543119    9.619999     18.0000     195.0840
      42     1 Pt  78    9.950446    4.025199    9.613152     18.0000     195.0840
      43     1 Pt  78   11.285858    1.593570    9.664851     18.0000     195.0840
      44     1 Pt  78   12.703939    4.046252    9.655866     18.0000     195.0840
      45     1 Pt  78   11.289065    6.490072    9.643212     18.0000     195.0840
      46     1 Pt  78   12.658891    8.899333    9.662891     18.0000     195.0840
      47     1 Pt  78   14.082048    6.472690    9.662515     18.0000     195.0840
      48     1 Pt  78   15.486821    8.900853    9.663773     18.0000     195.0840
      49     2 O    8    7.037088    4.700066   12.353348      6.0000      15.9994
      50     2 O    8    7.025227    3.259568   12.353412      6.0000      15.9994
      51     3 H    1    7.857316    4.865456   12.869017      1.0000       1.0079
      52     3 H    1    6.205005    3.094167   12.868902      1.0000       1.0079




 SCF PARAMETERS         Density guess:                                    ATOMIC
                        --------------------------------------------------------
                        max_scf:                                              50
                        max_scf_history:                                       0
                        max_diis:                                              4
                        --------------------------------------------------------
                        eps_scf:                                        1.00E-05
                        eps_scf_history:                                0.00E+00
                        eps_diis:                                       1.00E-01
                        eps_eigval:                                     1.00E-05
                        --------------------------------------------------------
                        level_shift [a.u.]:                                 0.00
                        --------------------------------------------------------
                        Outer loop SCF in use 
                        No variables optimised in outer loop
                        eps_scf                                         1.00E-05
                        max_scf                                               50
                        No outer loop optimization
                        step_size                                       5.00E-01

 PW_GRID| Information for grid number                                          1
 PW_GRID| Grid distributed over                                   120 processors
 PW_GRID| Real space group dimensions                                   120    1
 PW_GRID| the grid is blocked:                                                NO
 PW_GRID| Cutoff [a.u.]                                                    170.0
 PW_GRID| spherical cutoff:                                                   NO
 PW_GRID|   Bounds   1            -62      62                Points:         125
 PW_GRID|   Bounds   2            -62      62                Points:         125
 PW_GRID|   Bounds   3            -81      80                Points:         162
 PW_GRID| Volume element (a.u.^3)  0.4262E-02     Volume (a.u.^3)     10789.2772
 PW_GRID| Grid span                                                    FULLSPACE
 PW_GRID|   Distribution                         Average         Max         Min
 PW_GRID|   G-Vectors                            21093.8       21125       21000
 PW_GRID|   G-Rays                                 168.8         169         168
 PW_GRID|   Real Space Points                    21093.8       40500       20250

 PW_GRID| Information for grid number                                          2
 PW_GRID| Number of the reference grid                                         1
 PW_GRID| Grid distributed over                                   120 processors
 PW_GRID| Real space group dimensions                                    10   12
 PW_GRID| the grid is blocked:                                                NO
 PW_GRID| Cutoff [a.u.]                                                     56.7
 PW_GRID| spherical cutoff:                                                   NO
 PW_GRID|   Bounds   1            -37      37                Points:          75
 PW_GRID|   Bounds   2            -37      37                Points:          75
 PW_GRID|   Bounds   3            -48      47                Points:          96
 PW_GRID| Volume element (a.u.^3)  0.1998E-01     Volume (a.u.^3)     10789.2772
 PW_GRID| Grid span                                                    FULLSPACE
 PW_GRID|   Distribution                         Average         Max         Min
 PW_GRID|   G-Vectors                             4500.0        4875        4125
 PW_GRID|   G-Rays                                  60.0          65          55
 PW_GRID|   Real Space Points                     4500.0        5376        4032

 PW_GRID| Information for grid number                                          3
 PW_GRID| Number of the reference grid                                         1
 PW_GRID| Grid distributed over                                   120 processors
 PW_GRID| Real space group dimensions                                    10   12
 PW_GRID| the grid is blocked:                                                NO
 PW_GRID| Cutoff [a.u.]                                                     18.9
 PW_GRID| spherical cutoff:                                                   NO
 PW_GRID|   Bounds   1            -22      22                Points:          45
 PW_GRID|   Bounds   2            -22      22                Points:          45
 PW_GRID|   Bounds   3            -27      26                Points:          54
 PW_GRID| Volume element (a.u.^3)  0.9867E-01     Volume (a.u.^3)     10789.2772
 PW_GRID| Grid span                                                    FULLSPACE
 PW_GRID|   Distribution                         Average         Max         Min
 PW_GRID|   G-Vectors                              911.2         990         855
 PW_GRID|   G-Rays                                  20.2          22          19
 PW_GRID|   Real Space Points                      911.2        1080         648

 PW_GRID| Information for grid number                                          4
 PW_GRID| Number of the reference grid                                         1
 PW_GRID| Grid distributed over                                   120 processors
 PW_GRID| Real space group dimensions                                    10   12
 PW_GRID| the grid is blocked:                                                NO
 PW_GRID| Cutoff [a.u.]                                                      6.3
 PW_GRID| spherical cutoff:                                                   NO
 PW_GRID|   Bounds   1            -12      12                Points:          25
 PW_GRID|   Bounds   2            -12      12                Points:          25
 PW_GRID|   Bounds   3            -16      15                Points:          32
 PW_GRID| Volume element (a.u.^3)  0.5395         Volume (a.u.^3)     10789.2772
 PW_GRID| Grid span                                                    FULLSPACE
 PW_GRID|   Distribution                         Average         Max         Min
 PW_GRID|   G-Vectors                              166.7         250         100
 PW_GRID|   G-Rays                                   6.7          10           4
 PW_GRID|   Real Space Points                      166.7         288         128

 POISSON| Solver                                                        PERIODIC
 POISSON| Periodicity                                                        XYZ

 RS_GRID| Information for grid number                                          1
 RS_GRID|   Bounds   1            -62      62                Points:         125
 RS_GRID|   Bounds   2            -62      62                Points:         125
 RS_GRID|   Bounds   3            -81      80                Points:         162
 RS_GRID| Real space distribution over                                 10 groups
 RS_GRID| Real space distribution along direction                              2
 RS_GRID| Border size                                                         36
 RS_GRID| Real space distribution over                                 12 groups
 RS_GRID| Real space distribution along direction                              3
 RS_GRID| Border size                                                         36
 RS_GRID|   Distribution                         Average         Max         Min
 RS_GRID|   Planes                                  84.5          85          84
 RS_GRID|   Distribution                         Average         Max         Min
 RS_GRID|   Planes                                  85.5          86          85

 RS_GRID| Information for grid number                                          2
 RS_GRID|   Bounds   1            -37      37                Points:          75
 RS_GRID|   Bounds   2            -37      37                Points:          75
 RS_GRID|   Bounds   3            -48      47                Points:          96
 RS_GRID| Real space fully replicated
 RS_GRID| Group size                                                           1

 RS_GRID| Information for grid number                                          3
 RS_GRID|   Bounds   1            -22      22                Points:          45
 RS_GRID|   Bounds   2            -22      22                Points:          45
 RS_GRID|   Bounds   3            -27      26                Points:          54
 RS_GRID| Real space fully replicated
 RS_GRID| Group size                                                           1

 RS_GRID| Information for grid number                                          4
 RS_GRID|   Bounds   1            -12      12                Points:          25
 RS_GRID|   Bounds   2            -12      12                Points:          25
 RS_GRID|   Bounds   3            -16      15                Points:          32
 RS_GRID| Real space fully replicated
 RS_GRID| Group size                                                           1
 
 MD_PAR| Molecular dynamics protocol (MD input parameters)
 MD_PAR| Ensemble type                                                       NVT
 MD_PAR| Number of time steps                                               8000
 MD_PAR| Time step [fs]                                                 0.500000
 MD_PAR| Temperature [K]                                              298.000000
 MD_PAR| Temperature tolerance [K]                                      0.000000
 MD_PAR| Constraints activated
 MD_PAR| Tolerance for shake                                            0.000001
 MD_PAR| Print MD information every                                    1 step(s)
 MD_PAR| File type   Print frequency [steps]                          File names
 MD_PAR| Coordinates          1                             Pt111-H2O2-pos-1.xyz
 MD_PAR| Velocities           1                             Pt111-H2O2-vel-1.xyz
 MD_PAR| Energies             1                                Pt111-H2O2-1.ener
 MD_PAR| Dump                20                             Pt111-H2O2-1.restart

 ROT| Rotational analysis information
 ROT| Principal axes and moments of inertia [a.u.]
 ROT|                           1                   2                   3
 ROT| Eigenvalues      5.00729867029E+08   1.23873203390E+09   1.34505655443E+09
 ROT|      x              0.851967660514      0.497656711730     -0.162754117330
 ROT|      y              0.490156996586     -0.867351551515     -0.086298347501
 ROT|      z              0.184111988027      0.006251668105      0.982885391341
 ROT| Number of rotovibrational vectors                                        6

 DOF| Calculation of degrees of freedom
 DOF| Number of atoms                                                         52
 DOF| Number of intramolecular constraints                                    48
 DOF| Number of intermolecular constraints                                     0
 DOF| Invariants (translations + rotations)                                    3
 DOF| Degrees of freedom                                                     105

 DOF| Restraints information
 DOF| Number of intramolecular restraints                                      0
 DOF| Number of intermolecular restraints                                      0

 THERMOSTAT| Thermostat information for PARTICLES
 THERMOSTAT| Type of thermostat            Canonical Sampling/Velocity Rescaling
 THERMOSTAT| CSVR time constant [fs]                                  100.000000
 THERMOSTAT| Initial kinetic energy                           0.000000000000E+00
 THERMOSTAT| End of thermostat information for PARTICLES

 *** WARNING in motion/thermostat/barostat_types.F:128 :: A barostat has   ***
 *** been defined with an MD ensemble which does not support barostat! Its ***
 *** definition will be ignored!                                           ***


 MD_VEL| Velocities initialization
 MD_VEL| Initial temperature [K]                                      298.000000
 MD_VEL| COM velocity            -0.0000000000     0.0000000000     0.0000000000

 Spin 1

 Number of electrons:                                                        439
 Number of occupied orbitals:                                                439
 Number of molecular orbitals:                                               439

 Spin 2

 Number of electrons:                                                        439
 Number of occupied orbitals:                                                439
 Number of molecular orbitals:                                               439

 Number of orbital functions:                                                948
 Number of independent orbital functions:                                    948

 Extrapolation method: initial_guess

 Atomic guess: The first density matrix is obtained in terms of atomic orbitals
               and electronic configurations assigned to each atomic kind

 Guess for atomic kind: Pt

 Electronic structure
    Total number of core electrons                                         60.00
    Total number of valence electrons                                      18.00
    Total number of electrons                                              78.00
    Multiplicity                                                   not specified
    S   [  2.00  2.00  2.00  2.00] 2.00  1.00
    P   [  6.00  6.00  6.00] 6.00
    D   [ 10.00 10.00] 9.00
    F   [ 14.00]
 

 *******************************************************************************
                  Iteration          Convergence                     Energy [au]
 *******************************************************************************
                          1         1.01375                    -120.700954046978
                          2        0.457918                    -120.743638695117
                          3        0.873958E-02                -120.758010725686
                          4        0.990305E-05                -120.758015568606
                          5        0.211396E-07                -120.758015568614

 Energy components [Hartree]           Total Energy ::         -120.758015568614
                                        Band Energy ::          -21.973056227222
                                     Kinetic Energy ::           38.435033875918
                                   Potential Energy ::         -159.193049444532
                                      Virial (-V/T) ::            4.141873530240
                                        Core Energy ::         -211.719522036493
                                          XC Energy ::          -11.388375429335
                                     Coulomb Energy ::          102.349881897214
                       Total Pseudopotential Energy ::         -250.270908227561
                       Local Pseudopotential Energy ::         -236.202399898941
                    Nonlocal Pseudopotential Energy ::          -14.068508328620
                                        Confinement ::            1.163523151506

 Orbital energies  State     L     Occupation   Energy[a.u.]          Energy[eV]

                       1     0          2.000      -3.733489         -101.593414
                       2     0          1.000      -0.191928           -5.222627
 
                       1     1          6.000      -2.062427          -56.121506
 
                       1     2          9.000      -0.215509           -5.864308
 

 Total Electron Density at R=0:                                         0.018343

 Guess for atomic kind: O

 Electronic structure
    Total number of core electrons                                          2.00
    Total number of valence electrons                                       6.00
    Total number of electrons                                               8.00
    Multiplicity                                                   not specified
    S   [  2.00] 2.00
    P      4.00
 

 *******************************************************************************
                  Iteration          Convergence                     Energy [au]
 *******************************************************************************
                          1        0.646148                     -15.636779198680
                          2        0.563412                     -15.645844224453
                          3        0.777098E-02                 -15.702646985730
                          4        0.181933E-02                 -15.702656239616
                          5        0.462182E-03                 -15.702656742008
                          6        0.259018E-03                 -15.702656765778
                          7        0.325657E-06                 -15.702656776662

 Energy components [Hartree]           Total Energy ::          -15.702656776662
                                        Band Energy ::           -2.982158420927
                                     Kinetic Energy ::           11.942299328633
                                   Potential Energy ::          -27.644956105295
                                      Virial (-V/T) ::            2.314877172691
                                        Core Energy ::          -26.240315954047
                                          XC Energy ::           -3.168822192398
                                     Coulomb Energy ::           13.706481369783
                       Total Pseudopotential Energy ::          -38.217118818508
                       Local Pseudopotential Energy ::          -39.522372330173
                    Nonlocal Pseudopotential Energy ::            1.305253511666
                                        Confinement ::            0.345035358268

 Orbital energies  State     L     Occupation   Energy[a.u.]          Energy[eV]

                       1     0          2.000      -0.854038          -23.239545
 
                       1     1          4.000      -0.318521           -8.667392
 

 Total Electron Density at R=0:                                         0.000667

 Guess for atomic kind: H

 Electronic structure
    Total number of core electrons                                          0.00
    Total number of valence electrons                                       1.00
    Total number of electrons                                               1.00
    Multiplicity                                                   not specified
    S      1.00
 

 *******************************************************************************
                  Iteration          Convergence                     Energy [au]
 *******************************************************************************
                          1        0.316011E-02                  -0.422390558413
                          2        0.333152E-03                  -0.422399635530
                          3        0.114302E-06                  -0.422399737491

 Energy components [Hartree]           Total Energy ::           -0.422399737491
                                        Band Energy ::           -0.193019372217
                                     Kinetic Energy ::            0.475009752129
                                   Potential Energy ::           -0.897409489620
                                      Virial (-V/T) ::            1.889244348347
                                        Core Energy ::           -0.478923189740
                                          XC Energy ::           -0.248206713182
                                     Coulomb Energy ::            0.304730165431
                       Total Pseudopotential Energy ::           -0.971460622099
                       Local Pseudopotential Energy ::           -0.971460622099
                    Nonlocal Pseudopotential Energy ::            0.000000000000
                                        Confinement ::            0.175276802303

 Orbital energies  State     L     Occupation   Energy[a.u.]          Energy[eV]

                       1     0          1.000      -0.193019           -5.252324
 

 Total Electron Density at R=0:                                         0.237353

 Spin 1
 Re-scaling the density matrix to get the right number of electrons for spin 1
                  # Electrons              Trace(P)               Scaling factor
                          439               439.000                        1.000

 Spin 2
 Re-scaling the density matrix to get the right number of electrons for spin 2
                  # Electrons              Trace(P)               Scaling factor
                          439               439.000                        1.000


 SCF WAVEFUNCTION OPTIMIZATION

  ----------------------------------- OT ---------------------------------------
  Minimizer      : DIIS                : direct inversion
                                         in the iterative subspace
                                         using   7 DIIS vectors
                                         safer DIIS on
  Preconditioner : FULL_SINGLE_INVERSE : inversion of 
                                         H + eS - 2*(Sc)(c^T*H*c+const)(Sc)^T
  Precond_solver : DEFAULT
  stepsize       :    0.08000000                  energy_gap     :    0.08000000
  eps_taylor     :   0.10000E-15                  max_taylor     :             4
  ----------------------------------- OT ---------------------------------------

  Step     Update method      Time    Convergence         Total energy    Change
  ------------------------------------------------------------------------------
     1 OT DIIS     0.80E-01    0.7     0.02070937     -5787.2107530916 -5.79E+03
     2 OT DIIS     0.80E-01    0.7     0.01497189     -5811.9302373937 -2.47E+01
     3 OT DIIS     0.80E-01    0.6     0.00774628     -5832.3553740731 -2.04E+01
     4 OT DIIS     0.80E-01    0.7     0.00698001     -5833.7904431776 -1.44E+00
     5 OT DIIS     0.80E-01    0.6     0.00299280     -5839.0519178034 -5.26E+00
     6 OT DIIS     0.80E-01    0.6     0.00237279     -5840.1260804007 -1.07E+00
     7 OT DIIS     0.80E-01    0.6     0.00180531     -5840.9785014326 -8.52E-01
     8 OT DIIS     0.80E-01    0.6     0.00161911     -5841.6256140869 -6.47E-01
     9 OT DIIS     0.80E-01    0.7     0.00139553     -5842.4612785382 -8.36E-01
    10 OT DIIS     0.80E-01    0.7     0.00120504     -5843.3817442491 -9.20E-01
    11 OT DIIS     0.80E-01    0.6     0.00100517     -5844.0013087840 -6.20E-01
    12 OT DIIS     0.80E-01    0.6     0.00088900     -5844.3532608981 -3.52E-01
    13 OT DIIS     0.80E-01    0.6     0.00080125     -5844.6898014348 -3.37E-01
    14 OT DIIS     0.80E-01    0.6     0.00075258     -5844.9478575034 -2.58E-01
    15 OT DIIS     0.80E-01    0.7     0.00065125     -5845.2286095828 -2.81E-01
    16 OT DIIS     0.80E-01    0.7     0.00066091     -5845.4010102864 -1.72E-01
    17 OT DIIS     0.80E-01    0.6     0.00065530     -5845.4145579187 -1.35E-02
    18 OT DIIS     0.80E-01    0.6     0.00056492     -5845.5608621241 -1.46E-01
    19 OT DIIS     0.80E-01    0.6     0.00052600     -5845.7173279375 -1.56E-01
    20 OT DIIS     0.80E-01    0.6     0.00041565     -5845.9597010380 -2.42E-01
    21 OT DIIS     0.80E-01    0.6     0.00038788     -5846.0589524356 -9.93E-02
    22 OT DIIS     0.80E-01    0.6     0.00040558     -5846.1324020096 -7.34E-02
    23 OT DIIS     0.80E-01    0.7     0.00033964     -5846.1726333892 -4.02E-02
    24 OT DIIS     0.80E-01    0.6     0.00030343     -5846.2447897001 -7.22E-02
    25 OT DIIS     0.80E-01    0.6     0.00028638     -5846.2944800142 -4.97E-02
    26 OT DIIS     0.80E-01    0.6     0.00025710     -5846.3801640876 -8.57E-02
    27 OT DIIS     0.80E-01    0.6     0.00023686     -5846.4159639128 -3.58E-02
    28 OT DIIS     0.80E-01    0.6     0.00027152     -5846.4516776238 -3.57E-02
    29 OT DIIS     0.80E-01    0.6     0.00025343     -5846.4615512638 -9.87E-03
    30 OT DIIS     0.80E-01    0.6     0.00020567     -5846.4820798572 -2.05E-02
    31 OT DIIS     0.80E-01    0.6     0.00018943     -5846.5328518429 -5.08E-02
    32 OT DIIS     0.80E-01    0.6     0.00017988     -5846.5475618300 -1.47E-02
    33 OT DIIS     0.80E-01    0.6     0.00018280     -5846.5730314245 -2.55E-02
    34 OT DIIS     0.80E-01    0.6     0.00016162     -5846.5918641593 -1.88E-02
    35 OT DIIS     0.80E-01    0.6     0.00019265     -5846.6092366280 -1.74E-02
    36 OT DIIS     0.80E-01    0.7     0.00015917     -5846.6195291829 -1.03E-02
    37 OT DIIS     0.80E-01    0.6     0.00014210     -5846.6313939577 -1.19E-02
    38 OT DIIS     0.80E-01    0.6     0.00013971     -5846.6497416164 -1.83E-02
    39 OT DIIS     0.80E-01    0.6     0.00012813     -5846.6632981092 -1.36E-02
    40 OT DIIS     0.80E-01    0.6     0.00011935     -5846.6858840877 -2.26E-02
    41 OT DIIS     0.80E-01    0.6     0.00011429     -5846.6990248668 -1.31E-02
    42 OT DIIS     0.80E-01    0.6     0.00012074     -5846.7117303382 -1.27E-02
    43 OT DIIS     0.80E-01    0.7     0.00011388     -5846.7203635182 -8.63E-03
    44 OT DIIS     0.80E-01    0.7     0.00010537     -5846.7249170442 -4.55E-03
    45 OT DIIS     0.80E-01    0.6     0.00010353     -5846.7267172785 -1.80E-03
    46 OT DIIS     0.80E-01    0.6     0.00010099     -5846.7302383637 -3.52E-03
    47 OT DIIS     0.80E-01    0.6     0.00012432     -5846.7371801964 -6.94E-03
    48 OT DIIS     0.80E-01    0.6     0.00008944     -5846.7509565533 -1.38E-02
    49 OT DIIS     0.80E-01    0.6     0.00008318     -5846.7660357497 -1.51E-02
    50 OT DIIS     0.80E-01    0.6     0.00008060     -5846.7718424956 -5.81E-03

  Leaving inner SCF loop after reaching    50 steps.


  Electronic density on regular grids:       -877.9999998535        0.0000001465
  Core density on regular grids:              877.9999999458       -0.0000000542
  Total charge density on r-space grids:        0.0000000923
  Total charge density g-space grids:           0.0000000923

  Overlap energy of the core charge distribution:               0.00000003553536
  Self energy of the core charge distribution:              -8859.12123650879948
  Core Hamiltonian energy:                                   2029.76716269725148
  Hartree energy:                                            1544.23094642897604
  Exchange-correlation energy:                               -561.64871514851632

  Total energy:                                             -5846.77184249555285

  outer SCF iter =    1 RMS gradient =   0.81E-04 energy =      -5846.7718424956

  ----------------------------------- OT ---------------------------------------
  Minimizer      : DIIS                : direct inversion
                                         in the iterative subspace
                                         using   7 DIIS vectors
                                         safer DIIS on
  Preconditioner : FULL_SINGLE_INVERSE : inversion of 
                                         H + eS - 2*(Sc)(c^T*H*c+const)(Sc)^T
  Precond_solver : DEFAULT
  stepsize       :    0.08000000                  energy_gap     :    0.08000000
  eps_taylor     :   0.10000E-15                  max_taylor     :             4
  ----------------------------------- OT ---------------------------------------

  Step     Update method      Time    Convergence         Total energy    Change
  ------------------------------------------------------------------------------
     1 OT DIIS     0.80E-01    1.3     0.00028956     -5846.7804619444 -8.62E-03
     2 OT DIIS     0.80E-01    0.5     0.00037636     -5846.7843376457 -3.88E-03
     3 OT DIIS     0.80E-01    0.5     0.00025653     -5846.7863241800 -1.99E-03
     4 OT DIIS     0.80E-01    0.5     0.00024330     -5846.7897140557 -3.39E-03
     5 OT DIIS     0.80E-01    0.6     0.00025249     -5846.8026903691 -1.30E-02
     6 OT DIIS     0.80E-01    0.6     0.00020472     -5846.8132277055 -1.05E-02
     7 OT DIIS     0.80E-01    0.6     0.00018813     -5846.8218330589 -8.61E-03
     8 OT DIIS     0.80E-01    0.6     0.00018832     -5846.8271293442 -5.30E-03
     9 OT DIIS     0.80E-01    0.6     0.00017994     -5846.8318638137 -4.73E-03
    10 OT DIIS     0.80E-01    0.6     0.00017159     -5846.8419582029 -1.01E-02
    11 OT DIIS     0.80E-01    0.6     0.00018833     -5846.8478195946 -5.86E-03
    12 OT DIIS     0.80E-01    0.6     0.00015264     -5846.8536015039 -5.78E-03
    13 OT DIIS     0.80E-01    0.6     0.00014504     -5846.8588530189 -5.25E-03
    14 OT DIIS     0.80E-01    0.6     0.00013725     -5846.8614917644 -2.64E-03
    15 OT DIIS     0.80E-01    0.6     0.00013192     -5846.8653454945 -3.85E-03
    16 OT DIIS     0.80E-01    0.6     0.00013460     -5846.8694656869 -4.12E-03
    17 OT DIIS     0.80E-01    0.6     0.00012911     -5846.8723583291 -2.89E-03
    18 OT DIIS     0.80E-01    0.6     0.00012197     -5846.8769198841 -4.56E-03
    19 OT DIIS     0.80E-01    0.6     0.00012246     -5846.8794792415 -2.56E-03
    20 OT DIIS     0.80E-01    0.6     0.00011693     -5846.8814493859 -1.97E-03
    21 OT DIIS     0.80E-01    0.7     0.00011482     -5846.8846774701 -3.23E-03
    22 OT DIIS     0.80E-01    0.6     0.00011418     -5846.8868934261 -2.22E-03
    23 OT DIIS     0.80E-01    0.6     0.00010821     -5846.8906184045 -3.72E-03
    24 OT DIIS     0.80E-01    0.6     0.00010828     -5846.8937570123 -3.14E-03
    25 OT DIIS     0.80E-01    0.6     0.00010346     -5846.8956168702 -1.86E-03
    26 OT DIIS     0.80E-01    0.6     0.00009972     -5846.8984025670 -2.79E-03
    27 OT DIIS     0.80E-01    0.6     0.00010098     -5846.9005855165 -2.18E-03
    28 OT DIIS     0.80E-01    0.6     0.00009846     -5846.9025428023 -1.96E-03
    29 OT DIIS     0.80E-01    0.7     0.00009555     -5846.9055027369 -2.96E-03
    30 OT DIIS     0.80E-01    0.6     0.00009326     -5846.9073254270 -1.82E-03
    31 OT DIIS     0.80E-01    0.6     0.00008817     -5846.9094045324 -2.08E-03
    32 OT DIIS     0.80E-01    0.6     0.00008652     -5846.9109836325 -1.58E-03
    33 OT DIIS     0.80E-01    0.6     0.00008573     -5846.9121417704 -1.16E-03
    34 OT DIIS     0.80E-01    0.6     0.00008300     -5846.9140687536 -1.93E-03
    35 OT DIIS     0.80E-01    0.6     0.00008414     -5846.9156322548 -1.56E-03
    36 OT DIIS     0.80E-01    0.6     0.00008096     -5846.9169071480 -1.27E-03
    37 OT DIIS     0.80E-01    0.6     0.00007860     -5846.9182805442 -1.37E-03
    38 OT DIIS     0.80E-01    0.6     0.00007656     -5846.9192174303 -9.37E-04
    39 OT DIIS     0.80E-01    0.6     0.00007491     -5846.9202627184 -1.05E-03
    40 OT DIIS     0.80E-01    0.6     0.00007459     -5846.9214606960 -1.20E-03
    41 OT DIIS     0.80E-01    0.6     0.00007407     -5846.9224169059 -9.56E-04
    42 OT DIIS     0.80E-01    0.6     0.00007142     -5846.9237863094 -1.37E-03
    43 OT DIIS     0.80E-01    0.6     0.00007105     -5846.9248163067 -1.03E-03
    44 OT DIIS     0.80E-01    0.6     0.00006922     -5846.9255346961 -7.18E-04
    45 OT DIIS     0.80E-01    0.6     0.00006805     -5846.9264027071 -8.68E-04
    46 OT DIIS     0.80E-01    0.6     0.00006806     -5846.9273260458 -9.23E-04
    47 OT DIIS     0.80E-01    0.6     0.00006687     -5846.9283316708 -1.01E-03
    48 OT DIIS     0.80E-01    0.6     0.00006560     -5846.9294377646 -1.11E-03
    49 OT DIIS     0.80E-01    0.6     0.00006441     -5846.9301347200 -6.97E-04
    50 OT DIIS     0.80E-01    0.6     0.00006235     -5846.9309042212 -7.70E-04

  Leaving inner SCF loop after reaching    50 steps.


  Electronic density on regular grids:       -877.9999998510        0.0000001490
  Core density on regular grids:              877.9999999458       -0.0000000542
  Total charge density on r-space grids:        0.0000000948
  Total charge density g-space grids:           0.0000000948

  Overlap energy of the core charge distribution:               0.00000003553536
  Self energy of the core charge distribution:              -8859.12123650879948
  Core Hamiltonian energy:                                   2028.69543223424080
  Hartree energy:                                            1544.99495884437397
  Exchange-correlation energy:                               -561.50005882651271

  Total energy:                                             -5846.93090422116165

  outer SCF iter =    2 RMS gradient =   0.62E-04 energy =      -5846.9309042212

  ----------------------------------- OT ---------------------------------------
  Minimizer      : DIIS                : direct inversion
                                         in the iterative subspace
                                         using   7 DIIS vectors
                                         safer DIIS on
  Preconditioner : FULL_SINGLE_INVERSE : inversion of 
                                         H + eS - 2*(Sc)(c^T*H*c+const)(Sc)^T
  Precond_solver : DEFAULT
  stepsize       :    0.08000000                  energy_gap     :    0.08000000
  eps_taylor     :   0.10000E-15                  max_taylor     :             4
  ----------------------------------- OT ---------------------------------------

  Step     Update method      Time    Convergence         Total energy    Change
  ------------------------------------------------------------------------------
     1 OT DIIS     0.80E-01    1.3     0.00006891     -5846.9316009820 -6.97E-04
     2 OT DIIS     0.80E-01    0.5     0.00007786     -5846.9318894258 -2.88E-04
     3 OT DIIS     0.80E-01    0.5     0.00006641     -5846.9319851190 -9.57E-05
     4 OT DIIS     0.80E-01    0.5     0.00006721     -5846.9328035915 -8.18E-04
     5 OT DIIS     0.80E-01    0.5     0.00006124     -5846.9359602463 -3.16E-03
     6 OT DIIS     0.80E-01    0.6     0.00005676     -5846.9377750977 -1.81E-03
     7 OT DIIS     0.80E-01    0.6     0.00004931     -5846.9389091884 -1.13E-03
     8 OT DIIS     0.80E-01    0.6     0.00004903     -5846.9395552762 -6.46E-04
     9 OT DIIS     0.80E-01    0.6     0.00004786     -5846.9402337404 -6.78E-04
    10 OT DIIS     0.80E-01    0.6     0.00004627     -5846.9407940355 -5.60E-04
    11 OT DIIS     0.80E-01    0.6     0.00004952     -5846.9415352368 -7.41E-04
    12 OT DIIS     0.80E-01    0.6     0.00004198     -5846.9423914542 -8.56E-04
    13 OT DIIS     0.80E-01    0.6     0.00004176     -5846.9431787487 -7.87E-04
    14 OT DIIS     0.80E-01    0.6     0.00003863     -5846.9436393173 -4.61E-04
    15 OT DIIS     0.80E-01    0.6     0.00003797     -5846.9439128693 -2.74E-04
    16 OT DIIS     0.80E-01    0.6     0.00003713     -5846.9444092181 -4.96E-04
    17 OT DIIS     0.80E-01    0.6     0.00003785     -5846.9448354228 -4.26E-04
    18 OT DIIS     0.80E-01    0.6     0.00003589     -5846.9452926577 -4.57E-04
    19 OT DIIS     0.80E-01    0.6     0.00003580     -5846.9457717150 -4.79E-04
    20 OT DIIS     0.80E-01    0.6     0.00003249     -5846.9460237897 -2.52E-04
    21 OT DIIS     0.80E-01    0.6     0.00003139     -5846.9462007695 -1.77E-04
    22 OT DIIS     0.80E-01    0.6     0.00003230     -5846.9465530424 -3.52E-04
    23 OT DIIS     0.80E-01    0.6     0.00003154     -5846.9467644341 -2.11E-04
    24 OT DIIS     0.80E-01    0.6     0.00002979     -5846.9471187988 -3.54E-04
    25 OT DIIS     0.80E-01    0.6     0.00002990     -5846.9473587665 -2.40E-04
    26 OT DIIS     0.80E-01    0.6     0.00002753     -5846.9475432546 -1.84E-04
    27 OT DIIS     0.80E-01    0.6     0.00002608     -5846.9476375025 -9.42E-05
    28 OT DIIS     0.80E-01    0.6     0.00002695     -5846.9478113729 -1.74E-04
    29 OT DIIS     0.80E-01    0.6     0.00002615     -5846.9478813372 -7.00E-05
    30 OT DIIS     0.80E-01    0.6     0.00002372     -5846.9480543137 -1.73E-04
    31 OT DIIS     0.80E-01    0.7     0.00002489     -5846.9482839657 -2.30E-04
    32 OT DIIS     0.80E-01    0.6     0.00002211     -5846.9484506534 -1.67E-04
    33 OT DIIS     0.80E-01    0.6     0.00002152     -5846.9484747220 -2.41E-05
    34 OT DIIS     0.80E-01    0.6     0.00002023     -5846.9485876094 -1.13E-04
    35 OT DIIS     0.80E-01    0.6     0.00001870     -5846.9486388230 -5.12E-05
    36 OT DIIS     0.80E-01    0.6     0.00002031     -5846.9487488590 -1.10E-04
    37 OT DIIS     0.80E-01    0.6     0.00001781     -5846.9487967376 -4.79E-05
    38 OT DIIS     0.80E-01    0.6     0.00001796     -5846.9489204205 -1.24E-04
    39 OT DIIS     0.80E-01    0.6     0.00001459     -5846.9490064269 -8.60E-05
    40 OT DIIS     0.80E-01    0.6     0.00001440     -5846.9490372471 -3.08E-05
    41 OT DIIS     0.80E-01    0.6     0.00001420     -5846.9490631288 -2.59E-05
    42 OT DIIS     0.80E-01    0.6     0.00001362     -5846.9490796516 -1.65E-05
    43 OT DIIS     0.80E-01    0.6     0.00001260     -5846.9491411338 -6.15E-05
    44 OT DIIS     0.80E-01    0.6     0.00001476     -5846.9492240289 -8.29E-05
    45 OT DIIS     0.80E-01    0.6     0.00001257     -5846.9492325441 -8.52E-06
    46 OT DIIS     0.80E-01    0.6     0.00001125     -5846.9492655720 -3.30E-05
    47 OT DIIS     0.80E-01    0.6     0.00001024     -5846.9492894075 -2.38E-05
    48 OT DIIS     0.80E-01    0.6     0.00001024     -5846.9493107319 -2.13E-05
    49 OT DIIS     0.80E-01    0.6     0.00001011     -5846.9493265796 -1.58E-05
    50 OT DIIS     0.80E-01    0.6     0.00001026     -5846.9493421276 -1.55E-05

  Leaving inner SCF loop after reaching    50 steps.


  Electronic density on regular grids:       -877.9999998507        0.0000001493
  Core density on regular grids:              877.9999999458       -0.0000000542
  Total charge density on r-space grids:        0.0000000951
  Total charge density g-space grids:           0.0000000951

  Overlap energy of the core charge distribution:               0.00000003553536
  Self energy of the core charge distribution:              -8859.12123650879948
  Core Hamiltonian energy:                                   2028.60865186649539
  Hartree energy:                                            1545.05806894608622
  Exchange-correlation energy:                               -561.49482646690990

  Total energy:                                             -5846.94934212759199

  outer SCF iter =    3 RMS gradient =   0.10E-04 energy =      -5846.9493421276

  ----------------------------------- OT ---------------------------------------
  Minimizer      : DIIS                : direct inversion
                                         in the iterative subspace
                                         using   7 DIIS vectors
                                         safer DIIS on
  Preconditioner : FULL_SINGLE_INVERSE : inversion of 
                                         H + eS - 2*(Sc)(c^T*H*c+const)(Sc)^T
  Precond_solver : DEFAULT
  stepsize       :    0.08000000                  energy_gap     :    0.08000000
  eps_taylor     :   0.10000E-15                  max_taylor     :             4
  ----------------------------------- OT ---------------------------------------

  Step     Update method      Time    Convergence         Total energy    Change
  ------------------------------------------------------------------------------
     1 OT DIIS     0.80E-01    1.3     0.00000934     -5846.9493730550 -3.09E-05

  *** SCF run converged in     1 steps ***


  Electronic density on regular grids:       -877.9999998507        0.0000001493
  Core density on regular grids:              877.9999999458       -0.0000000542
  Total charge density on r-space grids:        0.0000000951
  Total charge density g-space grids:           0.0000000951

  Overlap energy of the core charge distribution:               0.00000003553536
  Self energy of the core charge distribution:              -8859.12123650879948
  Core Hamiltonian energy:                                   2028.60848699296776
  Hartree energy:                                            1545.05820634299471
  Exchange-correlation energy:                               -561.49482991768298

  Total energy:                                             -5846.94937305498479

  outer SCF iter =    4 RMS gradient =   0.93E-05 energy =      -5846.9493730550
  outer SCF loop converged in   4 iterations or  151 steps


  Integrated absolute spin density  :                               0.0000000000
  Ideal and single determinant S**2 :                    0.000000       0.000000

 ENERGY| Total FORCE_EVAL ( QS ) energy [a.u.]:            -5846.949377752935106

 MD_INI| MD initialization
 MD_INI| Potential energy [hartree]                          -0.584694937775E+04
 MD_INI| Kinetic energy [hartree]                             0.495448260457E-01
 MD_INI| Temperature [K]                                              298.000000
 MD_INI| Pressure [bar]                                      -1.083909407698E+05
 MD_INI| Cell volume [bohr^3]                                 1.078927724985E+04
 MD_INI| Cell volume [ang^3]                                  1.598805915298E+03
 MD_INI| Cell lengths [bohr]      2.12556474E+01  2.12556474E+01  2.75748430E+01
 MD_INI| Cell lengths [ang]       1.12480041E+01  1.12480041E+01  1.45919785E+01
 MD_INI| Cell angles [deg]        9.00000000E+01  9.00000000E+01  6.00000000E+01

 Spin 1

 Number of electrons:                                                        439
 Number of occupied orbitals:                                                439
 Number of molecular orbitals:                                               439

 Spin 2

 Number of electrons:                                                        439
 Number of occupied orbitals:                                                439
 Number of molecular orbitals:                                               439

 Number of orbital functions:                                                948
[...]
 flops    95 x    55 x    32         124225587200     100.0%      0.0%      0.0%
 flops    55 x    55 x    19         127566912000     100.0%      0.0%      0.0%
 flops    89 x    64 x    32         135423721472     100.0%      0.0%      0.0%
 flops    19 x    19 x    23         140059520832     100.0%      0.0%      0.0%
 flops   108 x    55 x    32         141224878080     100.0%      0.0%      0.0%
 flops    95 x    64 x    32         144553410560     100.0%      0.0%      0.0%
 flops    19 x    32 x    32         146852020224     100.0%      0.0%      0.0%
 flops    55 x    64 x    19         148441497600     100.0%      0.0%      0.0%
 flops   108 x    64 x    32         164334403584     100.0%      0.0%      0.0%
 flops    24 x    32 x    32         182593781760     100.0%      0.0%      0.0%
 flops    62 x    32 x    19         228709171200     100.0%      0.0%      0.0%
 flops   114 x    32 x    23         239764070400     100.0%      0.0%      0.0%
 flops    19 x    32 x    13         312142491648     100.0%      0.0%      0.0%
 flops    13 x    32 x    19         312142491648     100.0%      0.0%      0.0%
 flops    89 x    32 x    19         328308326400     100.0%      0.0%      0.0%
 flops    32 x    55 x    32         333074227200     100.0%      0.0%      0.0%
 flops    64 x    55 x    32         333074227200     100.0%      0.0%      0.0%
 flops    95 x    32 x    19         350441472000     100.0%      0.0%      0.0%
 flops   114 x    55 x    19         361392768000     100.0%      0.0%      0.0%
 flops    64 x    64 x    32         387577282560     100.0%      0.0%      0.0%
 flops    32 x    64 x    32         387577282560     100.0%      0.0%      0.0%
 flops   108 x    32 x    19         398396620800     100.0%      0.0%      0.0%
 flops   114 x    64 x    19         420529766400     100.0%      0.0%      0.0%
 flops    32 x    55 x    19         445324492800     100.0%      0.0%      0.0%
 flops    64 x    55 x    19         445324492800     100.0%      0.0%      0.0%
 flops    62 x    32 x    32         471700602880     100.0%      0.0%      0.0%
 flops    64 x    64 x    19         518195773440     100.0%      0.0%      0.0%
 flops    32 x    64 x    19         518195773440     100.0%      0.0%      0.0%
 flops    55 x    32 x    32         555123712000     100.0%      0.0%      0.0%
 flops    19 x    23 x    19         605353264128     100.0%      0.0%      0.0%
 flops    89 x    32 x    32         677118607360     100.0%      0.0%      0.0%
 flops    95 x    32 x    32         722767052800     100.0%      0.0%      0.0%
 flops    55 x    32 x    19         742207488000     100.0%      0.0%      0.0%
 flops   114 x    55 x    32         745353523200     100.0%      0.0%      0.0%
 flops   108 x    32 x    32         821672017920     100.0%      0.0%      0.0%
 flops   114 x    64 x    32         867320463360     100.0%      0.0%      0.0%
 flops    32 x    32 x    32        1937886412800     100.0%      0.0%      0.0%
 flops    64 x    32 x    32        1937886412800     100.0%      0.0%      0.0%
 flops   114 x    32 x    19        2102648832000     100.0%      0.0%      0.0%
 flops    19 x    19 x    32        2533250463744     100.0%      0.0%      0.0%
 flops    64 x    32 x    19        2590978867200     100.0%      0.0%      0.0%
 flops    32 x    32 x    19        2664404877312     100.0%      0.0%      0.0%
 flops   114 x    32 x    32        4336602316800     100.0%      0.0%      0.0%
 flops    19 x    32 x    19       10948998168576     100.0%      0.0%      0.0%
 flops inhomo. stacks                542059755200     100.0%      0.0%      0.0%
 flops total                        46.086207E+12     100.0%      0.0%      0.0%
 flops max/rank                    852.776628E+09     100.0%      0.0%      0.0%
 matmuls inhomo. stacks                   7156320     100.0%      0.0%      0.0%
 matmuls total                         1039798096     100.0%      0.0%      0.0%
 number of processed stacks             468762400     100.0%      0.0%      0.0%
 average stack size                                     2.2       0.0       0.0
 marketing flops                    49.080848E+12
 -------------------------------------------------------------------------------
 # multiplications                         120648
 max memory usage/rank               1.011204E+09
 # max total images/rank                        6
 # max 3D layers                                1
 # MPI messages exchanged              1578075840
 MPI messages size (bytes):
  total size                         7.082452E+12
  min size                           0.000000E+00
  max size                          29.184000E+03
  average size                       4.488030E+03
 MPI breakdown and total messages size (bytes):
             size <=      128           833246264                        0
       128 < size <=     8192           445656388            2467345303040
      8192 < size <=    32768           299173188            4643178788352
     32768 < size <=   131072                   0                        0
    131072 < size <=  4194304                   0                        0
   4194304 < size <= 16777216                   0                        0
  16777216 < size                               0                        0
 -------------------------------------------------------------------------------

 *** WARNING in dbcsr_mm.F:294 :: Using a non-square number of MPI ranks ***
 *** might lead to poor performance. Used ranks: 120 Suggested: 121 225  ***

 -------------------------------------------------------------------------------
 -                                                                             -
 -                      DBCSR MESSAGE PASSING PERFORMANCE                      -
 -                                                                             -
 -------------------------------------------------------------------------------
 ROUTINE             CALLS      AVE VOLUME [Bytes]
 MP_Bcast              163                     12.
 MP_Allreduce       640367                      8.
 MP_Alltoall        433006                  29771.
 MP_ISend         27121384                   3538.
 MP_IRecv         27046432                   3180.
 -------------------------------------------------------------------------------

 -------------------------------------------------------------------------------
 -                                                                             -
 -                                GRID STATISTICS                              -
 -                                                                             -
 -------------------------------------------------------------------------------
 LP    KERNEL             BACKEND                              COUNT     PERCENT
 4     collocate general  REF                              171732616      46.47%
 4     integrate general  REF                              160181394      43.35%
 7     integrate general  REF                               11586338       3.14%
 3     integrate general  REF                                6664598       1.80%
 3     collocate general  REF                                5696318       1.54%
 2     collocate general  REF                                5212348       1.41%
 2     integrate general  REF                                4863602       1.32%
 0     collocate general  REF                                1611430       0.44%
 1     collocate general  REF                                 519086       0.14%
 1     integrate general  REF                                 483970       0.13%
 6     integrate general  REF                                 379750       0.10%
 5     integrate general  REF                                 348746       0.09%
 0     integrate general  REF                                 263400       0.07%
 -------------------------------------------------------------------------------

 MEMORY| Estimated peak process memory [MiB]                                 965

 -------------------------------------------------------------------------------
 ----                             MULTIGRID INFO                            ----
 -------------------------------------------------------------------------------
 count for grid        1:        1807219          cutoff [a.u.]          170.00
 count for grid        2:        2307893          cutoff [a.u.]           56.67
 count for grid        3:        2688492          cutoff [a.u.]           18.89
 count for grid        4:        1197306          cutoff [a.u.]            6.30
 total gridlevel count  :        8000910

 -------------------------------------------------------------------------------
 -                                                                             -
 -                         MESSAGE PASSING PERFORMANCE                         -
 -                                                                             -
 -------------------------------------------------------------------------------

 ROUTINE             CALLS      AVE VOLUME [Bytes]
 MP_Group                4
 MP_Bcast            93156                   8544.
 MP_Allreduce       284746                    352.
 MP_Sync             26252
 MP_Alltoall        101065                 449858.
 MP_ISendRecv      4508196                  17984.
 MP_Wait           6347958
 MP_comm_split         496
 MP_ISend          2423982                  39864.
 MP_IRecv          2423982                  39864.
 MP_Recv              7462                 242688.
 -------------------------------------------------------------------------------


 -------------------------------------------------------------------------------
 -                                                                             -
 -                           R E F E R E N C E S                               -
 -                                                                             -
 -------------------------------------------------------------------------------
 
 CP2K version 8.2, the CP2K developers group (2021).
 CP2K is freely available from https://www.cp2k.org/ .

 Kuehne,Thomas D.; Iannuzzi,Marcella; Del Ben,Mauro;
 Rybkin,Vladimir V.; Seewald,Patrick; Stein,Frederick; Laino,Teodoro;
 Khaliullin,Rustam Z.; Schuett,Ole; Schiffmann,Florian; Golze,Dorothea;
 Wilhelm,Jan; Chulkov,Sergey; Bani-Hashemian,Mohammad Hossein;
 Weber,Valery; Borstnik,Urban; Taillefumier,Mathieu;
 Jakobovits,Alice Shoshana; Lazzaro,Alfio; Pabst,Hans; Mueller,Tiziano;
 Schade,Robert; Guidon,Manuel; Andermatt,Samuel; Holmberg,Nico;
 Schenter,Gregory K.; Hehn,Anna; Bussy,Augustin; Belleflamme,Fabian;
 Tabacchi,Gloria; Gloess,Andreas; Lass,Michael; Bethune,Iain;
 Mundy,Christopher J.; Plessl,Christian; Watkins,Matt;
 VandeVondele,Joost; Krack,Matthias; Hutter,Juerg. 
 The Journal of Chemical Physics, 152 (19), (2020). 
 CP2K: An electronic structure and molecular dynamics software package -
 Quickstep: Efficient and accurate electronic structure calculations.
 https://doi.org/10.1063/5.0007045

 Schuett, Ole; Messmer, Peter; Hutter, Juerg; VandeVondele, Joost. 
 Electronic Structure Calculations on Graphics Processing Units, John
 Wiley & Sons, Ltd, 173-190 (2016). 
 GPU-Accelerated Sparse Matrix-Matrix Multiplication for
 Linear Scaling Density Functional Theory.
 https://doi.org/10.1002/9781118670712.ch8

 Borstnik, U; VandeVondele, J; Weber, V; Hutter, J. 
 PARALLEL COMPUTING, 40 (5-6), 47-58 (2014). 
 Sparse matrix multiplication: The distributed block-compressed sparse
 row library.
 https://doi.org/10.1016/j.parco.2014.03.012

 Hutter, J; Iannuzzi, M; Schiffmann, F; VandeVondele, J. 
 WIREs Comput Mol Sci., 4 (1), 15-25 (2014). 
 CP2K: atomistic simulations of condensed matter systems.
 https://doi.org/10.1002/wcms.1159

 Kuhne, TD; Krack, M; Mohamed, FR; Parrinello, M. 
 PHYSICAL REVIEW LETTERS, 98 (6), 066401 (2007). 
 Efficient and accurate Car-Parrinello-like approach to
 Born-Oppenheimer molecular dynamics.
 https://doi.org/10.1103/PhysRevLett.98.066401

 Bussi, G; Donadio, D; Parrinello, M. 
 JOURNAL OF CHEMICAL PHYSICS, 126 (1), 014101 (2007). 
 Canonical sampling through velocity rescaling.
 https://doi.org/10.1063/1.2408420

 Krack, M. 
 THEORETICAL CHEMISTRY ACCOUNTS, 114 (1-3), 145-152 (2005). 
 Pseudopotentials for H to Kr optimized for gradient-corrected
 exchange-correlation functionals.
 https://doi.org/10.1007/s00214-005-0655-y

 VandeVondele, J; Krack, M; Mohamed, F; Parrinello, M; Chassaing, T;
 Hutter, J. COMPUTER PHYSICS COMMUNICATIONS, 167 (2), 103-128 (2005). 
 QUICKSTEP: Fast and accurate density functional calculations using a
 mixed Gaussian and plane waves approach.
 https://doi.org/10.1016/j.cpc.2004.12.014

 Frigo, M; Johnson, SG. 
 PROCEEDINGS OF THE IEEE, 93 (2), 216-231 (2005). 
 The design and implementation of FFTW3.
 https://doi.org/10.1109/JPROC.2004.840301

 Kolafa, J. 
 JOURNAL OF COMPUTATIONAL CHEMISTRY, 25 (3), 335-342 (2004). 
 Time-reversible always stable predictor-corrector method for molecular dynamics of polarizable molecules.
 https://doi.org/10.1002/jcc.10385

 VandeVondele, J; Hutter, J. 
 JOURNAL OF CHEMICAL PHYSICS, 118 (10), 4365-4369 (2003). 
 An efficient orbital transformation method for electronic structure
 calculations.
 https://doi.org/10.1063/1.1543154

 Hartwigsen, C; Goedecker, S; Hutter, J. 
 PHYSICAL REVIEW B, 58 (7), 3641-3662 (1998). 
 Relativistic separable dual-space Gaussian pseudopotentials from H to Rn.
 https://doi.org/10.1103/PhysRevB.58.3641

 Lippert, G; Hutter, J; Parrinello, M. 
 MOLECULAR PHYSICS, 92 (3), 477-487 (1997). 
 A hybrid Gaussian and plane wave density functional scheme.
 https://doi.org/10.1080/002689797170220

 Goedecker, S; Teter, M; Hutter, J. 
 PHYSICAL REVIEW B, 54 (3), 1703-1710 (1996). 
 Separable dual-space Gaussian pseudopotentials.
 https://doi.org/10.1103/PhysRevB.54.1703


 -------------------------------------------------------------------------------
 -                                                                             -
 -                                T I M I N G                                  -
 -                                                                             -
 -------------------------------------------------------------------------------
 SUBROUTINE                       CALLS  ASD         SELF TIME        TOTAL TIME
                                MAXIMUM       AVERAGE  MAXIMUM  AVERAGE  MAXIMUM
 CP2K                                 1  1.0    0.086    0.091 1800.990 1800.990
 qs_mol_dyn_low                       1  2.0    0.011    0.013 1800.522 1800.522
 qs_forces                          213  4.0    0.024    0.026 1797.455 1797.456
 velocity_verlet                    212  3.0    0.026    0.169 1705.488 1705.530
 qs_energies                        213  5.0    0.025    0.115 1669.404 1669.433
 scf_env_do_scf                     213  6.0    0.012    0.056 1593.501 1593.505
 scf_env_do_scf_inner_loop         2944  6.9    0.063    0.697 1520.460 1522.524
 rebuild_ks_matrix                 3157  8.7    0.010    0.011  760.392  761.737
 qs_ks_build_kohn_sham_matrix      3157  9.7    0.329    0.460  760.382  761.728
 sum_up_and_integrate              3157 10.7    1.318    1.750  688.082  688.390
 integrate_v_rspace                6314 11.7    0.113    0.134  686.756  687.073
 qs_ks_update_qs_env               3160  8.0    0.024    0.028  665.638  666.890
 rs_pw_transfer                   50938 12.4    0.409    0.552  556.325  608.051
 qs_rho_update_rho                 3157  8.0    0.022    0.025  549.443  549.542
 calculate_rho_elec                6314  9.0    1.072    1.987  549.421  549.518
 dbcsr_multiply_generic          120648 12.9    7.121    7.671  381.806  389.555
 qs_scf_new_mos                    2944  7.9    0.017    0.019  383.691  384.229
 qs_scf_loop_do_ot                 2944  8.9    0.041    0.115  383.674  384.212
 grid_collocate_task_list          6314 10.0  251.535  372.367  251.535  372.367
 ot_scf_mini                       2944  9.9    0.135    0.288  363.728  364.171
 grid_integrate_task_list          6314 12.7  223.015  345.904  223.015  345.904
 density_rs2pw                     6314 10.0    0.285    0.320  289.479  341.216
 potential_pw2rs                   6314 12.7    0.404    0.450  336.466  337.660
 rs_pw_transfer_PW2RS_170          6527 14.6   75.949   81.448  250.128  254.188
 rs_pw_transfer_RS2PW_170          6527 12.0   51.280   58.977  188.320  240.195
 ot_mini                           2944 10.9    0.030    0.034  238.896  239.670
 multiply_cannon                 120648 13.9   17.085   17.647  217.987  239.573
 mp_waitany                     1723128 14.3  161.466  216.633  161.466  216.633
 qs_ot_get_derivative              5888 11.9    0.055    0.060  211.090  211.449
 multiply_cannon_loop            120648 14.9   37.870   42.635  172.542  196.215
 mp_alltoall_d11v                100336 13.8  132.943  190.034  132.943  190.034
 rs_gather_matrices                6314 12.7    0.336    0.588  126.964  184.172
 qs_ot_get_derivative_taylor       5436 13.0    0.187    0.285  136.913  137.239
 rs_grid_zero                      6740 15.4  123.280  125.413  123.280  125.413
 mp_waitall_1                   ******* 16.3   91.721  112.829   91.721  112.829
 make_m2s                        241296 13.9    7.683    8.095  104.407  106.807
 qs_ks_update_qs_env_forces         213  5.0    0.001    0.001   95.198   95.289
 pw_transfer                      66510 12.1    3.680    3.898   89.797   94.836
 fft_wrap_pw1pw2                  60196 13.1    0.285    0.331   85.592   90.822
 fft3d_ps                         60196 15.1   19.632   30.075   75.526   80.475
 make_images                     241296 14.9   10.031   10.701   70.288   71.697
 qs_ot_get_p                       6320 10.8    0.041    0.056   70.232   71.689
 init_scf_loop                      216  7.0    0.005    0.005   70.636   70.643
 fft_wrap_pw1pw2_170              22312 13.7    4.386    5.600   62.004   67.510
 mp_sum_d                        146187 13.3   36.828   58.902   36.828   58.902
 rs_pw_transfer_PW2RS_60           6314 14.7   21.206   25.087   44.452   55.231
 init_scf_run                       213  6.0    0.004    0.025   53.734   53.736
 scf_env_initial_rho_setup          213  7.0    0.003    0.022   53.730   53.732
 wfi_extrapolate                    213  8.0    0.029    0.132   53.058   53.060
 multiply_cannon_metrocomm3     7238880 15.9    6.142    6.512   24.053   48.017
 multiply_cannon_metrocomm4     6635640 15.9   21.217   22.249   37.495   44.800
 mp_sum_l                        571001 14.0   32.220   43.273   32.220   43.273
 rs_pw_transfer_RS2PW_60           6314 12.0   19.887   22.540   40.692   42.742
 multiply_cannon_metrocomm2     6514992 15.9   20.682   21.842   35.215   40.145
 mp_alltoall_z22v                 60196 17.1   35.597   37.801   35.597   37.801
 multiply_cannon_multrec        7238880 15.9   21.208   37.026   21.694   37.539
 qs_ot_get_orbitals                5888 10.9    0.029    0.032   35.977   36.571
 multiply_cannon_metrocomm1     7238880 15.9    5.429    5.783   16.214   36.100
 -------------------------------------------------------------------------------

 The number of warnings for this run is : 3
 
 -------------------------------------------------------------------------------
  **** **** ******  **  PROGRAM ENDED AT                 2022-06-16 08:32:04.690
 ***** ** ***  *** **   PROGRAM RAN ON               Orion-17-54.HPC.MsState.Edu
 **    ****   ******    PROGRAM RAN BY                                     wnw36
 ***** **    ** ** **   PROGRAM PROCESS ID                                441399
  **** **  *******  **  PROGRAM STOPPED IN /work/hpc/users/wnw36/MSU-DFT-Catalys
                                           is-School/4_Surfaces-With-Adsorbates/
                                           Pt/5_H2O2
