      52
 i =        0, time =        0.000, E =     -5846.9493777529
 Pt         0.0000000000        0.0000000000        5.0000000000
 Pt         1.4060005200        2.4352643300        5.0000000000
 Pt         2.8120010300        0.0000000000        5.0000000000
 Pt         4.2180015500        2.4352643300        5.0000000000
 Pt         2.8120010300        4.8705286600        5.0000000000
 Pt         4.2180015500        7.3057929900        5.0000000000
 Pt         5.6240020700        4.8705286600        5.0000000000
 Pt         7.0300025900        7.3057929900        5.0000000000
 Pt         5.6240020700        0.0000000000        5.0000000000
 Pt         7.0300025900        2.4352643300        5.0000000000
 Pt         8.4360031000        0.0000000000        5.0000000000
 Pt         9.8420036200        2.4352643300        5.0000000000
 Pt         8.4360031000        4.8705286600        5.0000000000
 Pt         9.8420036200        7.3057929900        5.0000000000
 Pt        11.2480041400        4.8705286600        5.0000000000
 Pt        12.6540046500        7.3057929900        5.0000000000
 Pt         5.6251025800        3.2582114200        7.3500099100
 Pt         4.2151497500        0.8108664500        7.3344432300
 Pt         2.8204445500        3.2447555300        7.3385663800
 Pt         8.4378167300        8.1113436100        7.3367860000
 Pt         7.0342968300        5.6854652200        7.3591231800
 Pt         5.6330918500        8.1180635100        7.3290978200
 Pt        11.2554934700        3.2466008400        7.3149397900
 Pt         9.8459448900        0.8028037500        7.3220245500
 Pt         8.4566639900        3.2364572300        7.3091437500
 Pt        14.0620516700        8.1112968600        7.3329441400
 Pt        12.6639236000        5.6817484700        7.3234245900
 Pt        11.2461402400        8.1189753500        7.3292562900
 Pt         1.4117336900        0.8166671800        7.3341582900
 Pt         4.2201885500        5.6845286300        7.3350905600
 Pt         7.0252855400        0.8016860700        7.3239449800
 Pt         9.8525321500        5.6836717500        7.3283674400
 Pt         2.8285078400        1.6199572700        9.6796039700
 Pt         4.2239708200        4.0398519200        9.6913294400
 Pt         5.6251444000        1.5738913500        9.6674581900
 Pt         7.0311591400        3.9798142300        9.6111697000
 Pt         5.6203788100        6.4825101600        9.6637002100
 Pt         7.0359311500        8.9441386000        9.6609557400
 Pt         8.4546960900        6.5405990800        9.6571981600
 Pt         9.8634660000        8.9503357000        9.6671320700
 Pt         8.4787631600        1.5431193400        9.6199991500
 Pt         9.9504455300        4.0251989900        9.6131518400
 Pt        11.2858583600        1.5935698200        9.6648514100
 Pt        12.7039391500        4.0462522400        9.6558662600
 Pt        11.2890646300        6.4900716500        9.6432124300
 Pt        12.6588905100        8.8993329700        9.6628907300
 Pt        14.0820476000        6.4726902600        9.6625150300
 Pt        15.4868211300        8.9008534200        9.6637734200
  O         7.0370881600        4.7000661000       12.3533479600
  O         7.0252266100        3.2595680200       12.3534119700
  H         7.8573163800        4.8654560100       12.8690169800
  H         6.2050054100        3.0941667600       12.8689018800
      52
 i =        1, time =        0.500, E =     -5846.9494608328
 Pt         0.0000000000        0.0000000000        5.0000000000
 Pt         1.4060005200        2.4352643300        5.0000000000
 Pt         2.8120010300        0.0000000000        5.0000000000
 Pt         4.2180015500        2.4352643300        5.0000000000
 Pt         2.8120010300        4.8705286600        5.0000000000
 Pt         4.2180015500        7.3057929900        5.0000000000
 Pt         5.6240020700        4.8705286600        5.0000000000
 Pt         7.0300025900        7.3057929900        5.0000000000
 Pt         5.6240020700        0.0000000000        5.0000000000
 Pt         7.0300025900        2.4352643300        5.0000000000
 Pt         8.4360031000        0.0000000000        5.0000000000
 Pt         9.8420036200        2.4352643300        5.0000000000
 Pt         8.4360031000        4.8705286600        5.0000000000
 Pt         9.8420036200        7.3057929900        5.0000000000
 Pt        11.2480041400        4.8705286600        5.0000000000
 Pt        12.6540046500        7.3057929900        5.0000000000
 Pt         5.6259604723        3.2576469569        7.3497445777
 Pt         4.2154464266        0.8106066042        7.3340636847
 Pt         2.8202087945        3.2443492149        7.3378997710
 Pt         8.4389301826        8.1104968145        7.3370806733
 Pt         7.0353330657        5.6850162869        7.3591692978
 Pt         5.6334346523        8.1176369281        7.3297615226
 Pt        11.2554876588        3.2461817286        7.3153139607
 Pt         9.8450872131        0.8021222675        7.3214900677
 Pt         8.4560056767        3.2369664360        7.3085118230
 Pt        14.0619270235        8.1124072985        7.3324687711
 Pt        12.6636728733        5.6826495661        7.3229375249
 Pt        11.2465415954        8.1187617960        7.3298500618
 Pt         1.4117292968        0.8168473944        7.3333745797
 Pt         4.2197774923        5.6843678603        7.3354957424
 Pt         7.0251992048        0.8026668528        7.3238606982
 Pt         9.8536203493        5.6839810186        7.3284279959
 Pt         2.8284478326        1.6191053184        9.6801254817
 Pt         4.2237754861        4.0400558833        9.6914328538
 Pt         5.6254565878        1.5738767747        9.6672329942
 Pt         7.0307747224        3.9802933171        9.6113388181
 Pt         5.6206992738        6.4824142722        9.6647596992
 Pt         7.0352805820        8.9441191687        9.6606063809
 Pt         8.4555117804        6.5405821197        9.6567687842
 Pt         9.8618835903        8.9501603129        9.6671111730
 Pt         8.4781485914        1.5435441122        9.6195328818
 Pt         9.9512638492        4.0257361089        9.6137786911
 Pt        11.2861407227        1.5926827628        9.6650123072
 Pt        12.7041212839        4.0462561438        9.6557715837
 Pt        11.2881059210        6.4899127523        9.6434451643
 Pt        12.6581570497        8.8993251260        9.6625616101
 Pt        14.0819812984        6.4733813821        9.6629253357
 Pt        15.4864198155        8.9011588552        9.6642324267
  O         7.0411288712        4.7023186285       12.3556539888
  O         7.0259154503        3.2577186793       12.3519072158
  H         7.8724287807        4.8713369041       12.8639844567
  H         6.1951770062        3.0856291639       12.8703944431
      52
 i =        2, time =        1.000, E =     -5846.9492405674
 Pt         0.0000000000        0.0000000000        5.0000000000
 Pt         1.4060005200        2.4352643300        5.0000000000
 Pt         2.8120010300        0.0000000000        5.0000000000
 Pt         4.2180015500        2.4352643300        5.0000000000
 Pt         2.8120010300        4.8705286600        5.0000000000
 Pt         4.2180015500        7.3057929900        5.0000000000
 Pt         5.6240020700        4.8705286600        5.0000000000
 Pt         7.0300025900        7.3057929900        5.0000000000
 Pt         5.6240020700        0.0000000000        5.0000000000
 Pt         7.0300025900        2.4352643300        5.0000000000
 Pt         8.4360031000        0.0000000000        5.0000000000
 Pt         9.8420036200        2.4352643300        5.0000000000
 Pt         8.4360031000        4.8705286600        5.0000000000
 Pt         9.8420036200        7.3057929900        5.0000000000
 Pt        11.2480041400        4.8705286600        5.0000000000
 Pt        12.6540046500        7.3057929900        5.0000000000
 Pt         5.6268183282        3.2570798194        7.3494753167
 Pt         4.2157433935        0.8103468207        7.3336838972
 Pt         2.8199730408        3.2439433045        7.3372326646
 Pt         8.4400439986        8.1096512601        7.3373747022
 Pt         7.0363702478        5.6845668930        7.3592121435
 Pt         5.6337769088        8.1172097151        7.3304256726
 Pt        11.2554842636        3.2457609381        7.3156880478
 Pt         9.8442304686        0.8014397703        7.3209550133
 Pt         8.4553453569        3.2374765712        7.3078817942
 Pt        14.0618027218        8.1135185703        7.3319922727
 Pt        12.6634221843        5.6835507576        7.3224502840
 Pt        11.2469436201        8.1185479440        7.3304433680
 Pt         1.4117252139        0.8170271740        7.3325901219
 Pt         4.2193669728        5.6842062206        7.3359006347
 Pt         7.0251130259        0.8036482358        7.3237760741
 Pt         9.8547080102        5.6842904494        7.3284882744
 Pt         2.8283879496        1.6182528949        9.6806478078
 Pt         4.2235810016        4.0402593652        9.6915358059
 Pt         5.6257708211        1.5738646653        9.6670084948
 Pt         7.0303944530        3.9807770276        9.6115143522
 Pt         5.6210221458        6.4823181159        9.6658206262
 Pt         7.0346315474        8.9440977235        9.6602582520
 Pt         8.4563286711        6.5405597601        9.6563400277
 Pt         9.8602991365        8.9499818579        9.6670911855
 Pt         8.4775318528        1.5439737584        9.6190701319
 Pt         9.9520742390        4.0262750911        9.6144093097
 Pt        11.2864232717        1.5917969431        9.6651731454
 Pt        12.7043028118        4.0462592628        9.6556783435
 Pt        11.2871451963        6.4897537304        9.6436802859
 Pt        12.6574252525        8.8993177487        9.6622334407
 Pt        14.0819147716        6.4740734411        9.6633371607
 Pt        15.4860181653        8.9014638901        9.6646925810
  O         7.0451854343        4.7045883898       12.3579469139
  O         7.0265546303        3.2558491021       12.3504124641
  H         7.8873311783        4.8772216254       12.8587073929
  H         6.1860126486        3.0771682461       12.8713373052
      52
 i =        3, time =        1.500, E =     -5846.9488510300
 Pt         0.0000000000        0.0000000000        5.0000000000
 Pt         1.4060005200        2.4352643300        5.0000000000
 Pt         2.8120010300        0.0000000000        5.0000000000
 Pt         4.2180015500        2.4352643300        5.0000000000
 Pt         2.8120010300        4.8705286600        5.0000000000
 Pt         4.2180015500        7.3057929900        5.0000000000
 Pt         5.6240020700        4.8705286600        5.0000000000
 Pt         7.0300025900        7.3057929900        5.0000000000
 Pt         5.6240020700        0.0000000000        5.0000000000
 Pt         7.0300025900        2.4352643300        5.0000000000
 Pt         8.4360031000        0.0000000000        5.0000000000
 Pt         9.8420036200        2.4352643300        5.0000000000
 Pt         8.4360031000        4.8705286600        5.0000000000
 Pt         9.8420036200        7.3057929900        5.0000000000
 Pt        11.2480041400        4.8705286600        5.0000000000
 Pt        12.6540046500        7.3057929900        5.0000000000
 Pt         5.6276714060        3.2565131708        7.3492036219
 Pt         4.2160390317        0.8100884930        7.3333059733
 Pt         2.8197385945        3.2435400171        7.3365687721
 Pt         8.4411521070        8.1088115836        7.3376664250
 Pt         7.0374026923        5.6841194895        7.3592515115
 Pt         5.6341167775        8.1167841545        7.3310866337
 Pt        11.2554832396        3.2453407681        7.3160600184
 Pt         9.8433793444        0.8007600547        7.3204223319
 Pt         8.4546867623        3.2379848670        7.3072571799
 Pt        14.0616794418        8.1146245879        7.3315172910
 Pt        12.6631729584        5.6844471157        7.3219655917
 Pt        11.2473441516        8.1183350446        7.3310329317
 Pt         1.4117214614        0.8172054637        7.3318092411
 Pt         4.2189592612        5.6840445976        7.3363030669
 Pt         7.0250274508        0.8046248394        7.3236915374
 Pt         9.8557892512        5.6845982593        7.3285479109
 Pt         2.8283285068        1.6174046631        9.6811680477
 Pt         4.2233884083        4.0404612275        9.6916376881
 Pt         5.6260852670        1.5738550743        9.6667859129
 Pt         7.0300204130        3.9812627385        9.6116954364
 Pt         5.6213456635        6.4822222220        9.6668772192
 Pt         7.0339875699        8.9440743186        9.6599132372
 Pt         8.4571422432        6.5405320857        9.6559143050
 Pt         9.8587212814        8.9498013375        9.6670722408
 Pt         8.4769163438        1.5444059557        9.6186133768
 Pt         9.9528722986        4.0268129484        9.6150402392
 Pt        11.2867044140        1.5909171962        9.6653330142
 Pt        12.7044828032        4.0462615776        9.6555869897
 Pt        11.2861877626        6.4895954834        9.6439165559
 Pt        12.6566990381        8.8993108981        9.6619080216
 Pt        14.0818483373        6.4747626700        9.6637482419
 Pt        15.4856183064        8.9017668668        9.6651513752
  O         7.0492594265        4.7068552795       12.3602300726
  O         7.0270967340        3.2539745948       12.3489681406
  H         7.9014305380        4.8828422648       12.8529437846
  H         6.1784132120        3.0691318304       12.8712230574
      52
 i =        4, time =        2.000, E =     -5846.9484376266
 Pt         0.0000000000        0.0000000000        5.0000000000
 Pt         1.4060005200        2.4352643300        5.0000000000
 Pt         2.8120010300        0.0000000000        5.0000000000
 Pt         4.2180015500        2.4352643300        5.0000000000
 Pt         2.8120010300        4.8705286600        5.0000000000
 Pt         4.2180015500        7.3057929900        5.0000000000
 Pt         5.6240020700        4.8705286600        5.0000000000
 Pt         7.0300025900        7.3057929900        5.0000000000
 Pt         5.6240020700        0.0000000000        5.0000000000
 Pt         7.0300025900        2.4352643300        5.0000000000
 Pt         8.4360031000        0.0000000000        5.0000000000
 Pt         9.8420036200        2.4352643300        5.0000000000
 Pt         8.4360031000        4.8705286600        5.0000000000
 Pt         9.8420036200        7.3057929900        5.0000000000
 Pt        11.2480041400        4.8705286600        5.0000000000
 Pt        12.6540046500        7.3057929900        5.0000000000
 Pt         5.6285318435        3.2559389646        7.3489256220
 Pt         4.2163375740        0.8098279066        7.3329245433
 Pt         2.8195021195        3.2431335946        7.3358986683
 Pt         8.4422703590        8.1079658116        7.3379599538
 Pt         7.0384451332        5.6836676744        7.3592879758
 Pt         5.6344591401        8.1163541100        7.3317538480
 Pt        11.2554845138        3.2449152056        7.3164352034
 Pt         9.8425216914        0.8000734692        7.3198844307
 Pt         8.4540205973        3.2384986077        7.3066291365
 Pt        14.0615554197        8.1157411401        7.3310370735
 Pt        12.6629216925        5.6853514438        7.3214765790
 Pt        11.2477489505        8.1181201338        7.3316271416
 Pt         1.4117179844        0.8173847470        7.3310208164
 Pt         4.2185485569        5.6838806808        7.3367088313
 Pt         7.0249412354        0.8056106024        7.3236058524
 Pt         9.8568795780        5.6849087532        7.3286077203
 Pt         2.8282686481        1.6165485082        9.6816935956
 Pt         4.2231949401        4.0406643274        9.6917399006
 Pt         5.6264043087        1.5738478618        9.6665620622
 Pt         7.0296472784        3.9817574350        9.6118847758
 Pt         5.6216744612        6.4821252212        9.6679446074
 Pt         7.0333394311        8.9440485496        9.6595663911
 Pt         8.4579640644        6.5404986372        9.6554856116
 Pt         9.8571274590        8.9496161896        9.6670540991
 Pt         8.4762932978        1.5448469189        9.6181560480
 Pt         9.9536694211        4.0273573266        9.6156805033
 Pt        11.2869881166        1.5900309494        9.6654941650
 Pt        12.7046638894        4.0462631191        9.6554961561
 Pt        11.2852199944        6.4894357792        9.6441574125
 Pt        12.6559679684        8.8993044893        9.6615807154
 Pt        14.0817810061        6.4754589267        9.6641644463
 Pt        15.4852144628        8.9020721231        9.6656153739
  O         7.0534278592        4.7091425249       12.3625486728
  O         7.0275175357        3.2520757816       12.3475777691
  H         7.9145097707        4.8880673653       12.8463924936
  H         6.1729172314        3.0616664187       12.8696762905
      52
 i =        5, time =        2.500, E =     -5846.9481261955
 Pt         0.0000000000        0.0000000000        5.0000000000
 Pt         1.4060005200        2.4352643300        5.0000000000
 Pt         2.8120010300        0.0000000000        5.0000000000
 Pt         4.2180015500        2.4352643300        5.0000000000
 Pt         2.8120010300        4.8705286600        5.0000000000
 Pt         4.2180015500        7.3057929900        5.0000000000
 Pt         5.6240020700        4.8705286600        5.0000000000
 Pt         7.0300025900        7.3057929900        5.0000000000
 Pt         5.6240020700        0.0000000000        5.0000000000
 Pt         7.0300025900        2.4352643300        5.0000000000
 Pt         8.4360031000        0.0000000000        5.0000000000
 Pt         9.8420036200        2.4352643300        5.0000000000
 Pt         8.4360031000        4.8705286600        5.0000000000
 Pt         9.8420036200        7.3057929900        5.0000000000
 Pt        11.2480041400        4.8705286600        5.0000000000
 Pt        12.6540046500        7.3057929900        5.0000000000
 Pt         5.6294028728        3.2553550325        7.3486402366
 Pt         4.2166401751        0.8095640436        7.3325381819
 Pt         2.8192627241        3.2427224959        7.3352198547
 Pt         8.4434030450        8.1071107570        7.3382563457
 Pt         7.0395015337        5.6832097095        7.3593216579
 Pt         5.6348053246        8.1159178776        7.3324298648
 Pt        11.2554880466        3.2444826034        7.3168150521
 Pt         9.8416542609        0.7993774497        7.3193392721
 Pt         8.4533444233        3.2390197812        7.3059953674
 Pt        14.0614301775        8.1168724754        7.3305498115
 Pt        12.6626674880        5.6862671878        7.3209814328
 Pt        11.2481596033        8.1179024661        7.3322282229
 Pt         1.4117147706        0.8175656443        7.3302218747
 Pt         4.2181333209        5.6837138382        7.3371195160
 Pt         7.0248540300        0.8066092707        7.3235186666
 Pt         9.8579831991        5.6852230225        7.3286678894
 Pt         2.8282081440        1.6156811625        9.6822264252
 Pt         4.2229998552        4.0408694069        9.6918427639
 Pt         5.6267290651        1.5738430147        9.6663360855
 Pt         7.0292736858        3.9822630967        9.6120832617
 Pt         5.6220098281        6.4820267391        9.6690269061
 Pt         7.0326846593        8.9440202300        9.6592163837
 Pt         8.4587972194        6.5404591716        9.6550524040
 Pt         9.8555115559        8.9494256985        9.6670367350
 Pt         8.4756603543        1.5452984071        9.6176963813
 Pt         9.9544685641        4.0279102768        9.6163325875
 Pt        11.2872754086        1.5891348287        9.6656571753
 Pt        12.7048468153        4.0462638892        9.6554054388
 Pt        11.2842382422        6.4892740393        9.6444038670
 Pt        12.6552292122        8.8992985075        9.6612502973
 Pt        14.0817124793        6.4761648789        9.6645873668
 Pt        15.4848050336        8.9023808307        9.6660863634
  O         7.0577186724        4.7114482637       12.3649199274
  O         7.0277995104        3.2501550196       12.3462517768
  H         7.9263112575        4.8927313862       12.8388765100
  H         6.1699426560        3.0549635361       12.8664478334
      52
 i =        6, time =        3.000, E =     -5846.9479916991
 Pt         0.0000000000        0.0000000000        5.0000000000
 Pt         1.4060005200        2.4352643300        5.0000000000
 Pt         2.8120010300        0.0000000000        5.0000000000
 Pt         4.2180015500        2.4352643300        5.0000000000
 Pt         2.8120010300        4.8705286600        5.0000000000
 Pt         4.2180015500        7.3057929900        5.0000000000
 Pt         5.6240020700        4.8705286600        5.0000000000
 Pt         7.0300025900        7.3057929900        5.0000000000
 Pt         5.6240020700        0.0000000000        5.0000000000
 Pt         7.0300025900        2.4352643300        5.0000000000
 Pt         8.4360031000        0.0000000000        5.0000000000
 Pt         9.8420036200        2.4352643300        5.0000000000
 Pt         8.4360031000        4.8705286600        5.0000000000
 Pt         9.8420036200        7.3057929900        5.0000000000
 Pt        11.2480041400        4.8705286600        5.0000000000
 Pt        12.6540046500        7.3057929900        5.0000000000
 Pt         5.6302797952        3.2547645095        7.3483489743
 Pt         4.2169452403        0.8092982816        7.3321489817
 Pt         2.8190216946        3.2423089236        7.3345360120
 Pt         8.4445441487        8.1062510269        7.3385539561
 Pt         7.0405662429        5.6827480263        7.3593523646
 Pt         5.6351535055        8.1154777258        7.3331110780
 Pt        11.2554937673        3.2440452526        7.3171975533
 Pt         9.8407817074        0.7986757705        7.3187897819
 Pt         8.4526619578        3.2395456285        7.3053593498
 Pt        14.0613043680        8.1180125406        7.3300581305
 Pt        12.6624117579        5.6871894575        7.3204828466
 Pt        11.2485739535        8.1176832765        7.3328329216
 Pt         1.4117118406        0.8177471256        7.3294167216
 Pt         4.2177157949        5.6835449594        7.3375329661
 Pt         7.0247662777        0.8076154900        7.3234304211
 Pt         9.8590942699        5.6855393031        7.3287280586
 Pt         2.8281473194        1.6148072476        9.6827636617
 Pt         4.2228041933        4.0410753358        9.6919456578
 Pt         5.6270576973        1.5738405620        9.6661091834
 Pt         7.0289016889        3.9827771159        9.6122899918
 Pt         5.6223500075        6.4819272959        9.6701183815
 Pt         7.0320267594        8.9439894255        9.6588650775
 Pt         8.4596372126        6.5404137895        9.6546170935
 Pt         9.8538821735        8.9492308720        9.6670202842
 Pt         8.4750209136        1.5457580724        9.6172368059
 Pt         9.9552653851        4.0284688210        9.6169930518
 Pt        11.2875647004        1.5882336205        9.6658211376
 Pt        12.7050306546        4.0462638872        9.6553152619
 Pt        11.2832477921        6.4891111611        9.6446546977
 Pt        12.6544866699        8.8992929898        9.6609185561
 Pt        14.0816430746        6.4768767661        9.6650147503
 Pt        15.4843921514        8.9026913531        9.6665618442
  O         7.0621112319        4.7137478218       12.3673341418
  O         7.0279390045        3.2482352036       12.3450023180
  H         7.9366132766        4.8966565480       12.8303779599
  H         6.1696799776        3.0492221668       12.8614769689
      52
 i =        7, time =        3.500, E =     -5846.9480320458
 Pt         0.0000000000        0.0000000000        5.0000000000
 Pt         1.4060005200        2.4352643300        5.0000000000
 Pt         2.8120010300        0.0000000000        5.0000000000
 Pt         4.2180015500        2.4352643300        5.0000000000
 Pt         2.8120010300        4.8705286600        5.0000000000
 Pt         4.2180015500        7.3057929900        5.0000000000
 Pt         5.6240020700        4.8705286600        5.0000000000
 Pt         7.0300025900        7.3057929900        5.0000000000
 Pt         5.6240020700        0.0000000000        5.0000000000
 Pt         7.0300025900        2.4352643300        5.0000000000
 Pt         8.4360031000        0.0000000000        5.0000000000
 Pt         9.8420036200        2.4352643300        5.0000000000
 Pt         8.4360031000        4.8705286600        5.0000000000
 Pt         9.8420036200        7.3057929900        5.0000000000
 Pt        11.2480041400        4.8705286600        5.0000000000
 Pt        12.6540046500        7.3057929900        5.0000000000
 Pt         5.6311574741        3.2541708579        7.3480535329
 Pt         4.2172510194        0.8090321384        7.3317592315
 Pt         2.8187804407        3.2418952865        7.3338511672
 Pt         8.4456870709        8.1053916438        7.3388510000
 Pt         7.0416330609        5.6822852895        7.3593799297
 Pt         5.6355016842        8.1150361472        7.3337935386
 Pt        11.2555015754        3.2436056763        7.3175805045
 Pt         9.8399091151        0.7979725665        7.3182391663
 Pt         8.4519772773        3.2400731152        7.3047248507
 Pt        14.0611787087        8.1191547029        7.3295649141
 Pt        12.6621560523        5.6881128973        7.3199837614
 Pt        11.2489896325        8.1174639097        7.3334376865
 Pt         1.4117092050        0.8179280734        7.3286100741
 Pt         4.2172984268        5.6833750313        7.3379468217
 Pt         7.0246784699        0.8086234024        7.3233416059
 Pt         9.8602063927        5.6858556704        7.3287878464
 Pt         2.8280865283        1.6139318243        9.6833021553
 Pt         4.2226090865        4.0412808889        9.6920479152
 Pt         5.6273881840        1.5738405123        9.6658826585
 Pt         7.0285334770        3.9832965844        9.6125038711
 Pt         5.6226930434        6.4818274574        9.6712127423
 Pt         7.0313695433        8.9439562404        9.6585144991
 Pt         8.4604791102        6.5403626648        9.6541823047
 Pt         9.8522487437        8.9490328518        9.6670048792
 Pt         8.4743787216        1.5462232831        9.6167799392
 Pt         9.9560552296        4.0290296729        9.6176580862
 Pt        11.2878542514        1.5873325406        9.6659850620
 Pt        12.7052143984        4.0462631226        9.6552260819
 Pt        11.2822544502        6.4889481184        9.6449085342
 Pt        12.6537446024        8.8992879715        9.6605874345
 Pt        14.0815731496        6.4775904609        9.6654441155
 Pt        15.4839781692        8.9030019047        9.6670390687
  O         7.0665727134        4.7160144150       12.3697754084
  O         7.0279493022        3.2463423845       12.3438319516
  H         7.9453404918        4.8997009640       12.8209790565
  H         6.1720563124        3.0445809093       12.8548685403
      52
 i =        8, time =        4.000, E =     -5846.9481641172
 Pt         0.0000000000        0.0000000000        5.0000000000
 Pt         1.4060005200        2.4352643300        5.0000000000
 Pt         2.8120010300        0.0000000000        5.0000000000
 Pt         4.2180015500        2.4352643300        5.0000000000
 Pt         2.8120010300        4.8705286600        5.0000000000
 Pt         4.2180015500        7.3057929900        5.0000000000
 Pt         5.6240020700        4.8705286600        5.0000000000
 Pt         7.0300025900        7.3057929900        5.0000000000
 Pt         5.6240020700        0.0000000000        5.0000000000
 Pt         7.0300025900        2.4352643300        5.0000000000
 Pt         8.4360031000        0.0000000000        5.0000000000
 Pt         9.8420036200        2.4352643300        5.0000000000
 Pt         8.4360031000        4.8705286600        5.0000000000
 Pt         9.8420036200        7.3057929900        5.0000000000
 Pt        11.2480041400        4.8705286600        5.0000000000
 Pt        12.6540046500        7.3057929900        5.0000000000
 Pt         5.6320284707        3.2535791267        7.3477564344
 Pt         4.2175549590        0.8087678246        7.3313722436
 Pt         2.8185410093        3.2414850706        7.3331711479
 Pt         8.4468222138        8.1045398681        7.3391449215
 Pt         7.0426929836        5.6818253852        7.3594041622
 Pt         5.6358469544        8.1145968053        7.3344715016
 Pt        11.2555113184        3.2431675752        7.3179606972
 Pt         9.8390438454        0.7972738307        7.3176920826
 Pt         8.4512962746        3.2405978094        7.3040972671
 Pt        14.0610542359        8.1202893263        7.3290743562
 Pt        12.6619025871        5.6890297310        7.3194884256
 Pt        11.2494031681        8.1172462872        7.3340373850
 Pt         1.4117068765        0.8181068931        7.3278087749
 Pt         4.2168847545        5.6832055005        7.3383576355
 Pt         7.0245913267        0.8096244952        7.3232529478
 Pt         9.8613102575        5.6861693797        7.3288467242
 Pt         2.8280262856        1.6130622438        9.6838373364
 Pt         4.2224161688        4.0414843078        9.6921486098
 Pt         5.6277176203        1.5738428362        9.6656583947