#     Step Nr.          Time[fs]        Kin.[a.u.]          Temp[K]            Pot.[a.u.]        Cons Qty[a.u.]        UsedTime[s]
         0            0.000000         0.049544826       298.000000000     -5846.949377753     -5846.899832927         0.000000000
         1            0.500000         0.049257788       296.273533483     -5846.949460833     -5846.899875174        99.392050982
         2            1.000000         0.047758275       287.254330692     -5846.949240567     -5846.899911135         2.500134945
         3            1.500000         0.048503533       291.736877601     -5846.948851030     -5846.899948767         2.497477055
         4            2.000000         0.048649097       292.612410548     -5846.948437627     -5846.899984693         2.500200987
         5            2.500000         0.049828190       299.704366747     -5846.948126195     -5846.900017652         2.516707897
         6            3.000000         0.050125743       301.494072093     -5846.947991699     -5846.900056647         2.987187147
         7            3.500000         0.049712090       299.006051138     -5846.948032046     -5846.900110638         2.509703875
         8            4.000000         0.050433203       303.343367996     -5846.948164117     -5846.900171064         2.507323980
         9            4.500000         0.051151783       307.665454863     -5846.948254988     -5846.900225371         2.582668066
        10            5.000000         0.052304052       314.596068221     -5846.948160154     -5846.900264857         1.560477972
        11            5.500000         0.051345437       308.830233783     -5846.947810554     -5846.900295239         2.715316057
        12            6.000000         0.050235119       302.151941119     -5846.947231362     -5846.900304947         2.565728903
        13            6.500000         0.050192705       301.896834171     -5846.946580461     -5846.900298834         2.537892103
        14            7.000000         0.048808682       293.572273065     -5846.946065660     -5846.900291753         2.515024900
        15            7.500000         0.049232499       296.121428339     -5846.945855686     -5846.900300288         2.522955179
        16            8.000000         0.050531538       303.934828219     -5846.945964002     -5846.900328338         2.516090870
        17            8.500000         0.049743069       299.192382096     -5846.946252983     -5846.900366089         2.514366150
        18            9.000000         0.050412883       303.221149020     -5846.946506384     -5846.900394788         2.532270908
        19            9.500000         0.050718717       305.060669291     -5846.946552813     -5846.900396720         1.548259020
        20           10.000000         0.049711957       299.005253349     -5846.946340386     -5846.900381722         3.027011871
        21           10.500000         0.048630802       292.502371429     -5846.945924947     -5846.900354292         3.018836975
        22           11.000000         0.048716392       293.017170740     -5846.945436281     -5846.900325709         2.533974171
        23           11.500000         0.048902643       294.137426388     -5846.945017921     -5846.900301790         2.517479897
        24           12.000000         0.049159323       295.681291813     -5846.944781789     -5846.900290137         2.519406080
        25           12.500000         0.048758179       293.268508145     -5846.944764949     -5846.900288819         2.556113005
        26           13.000000         0.049119583       295.442265732     -5846.944918205     -5846.900291265         2.557564020
        27           13.500000         0.049065281       295.115653942     -5846.945124504     -5846.900298615         2.638984919
        28           14.000000         0.049717009       299.035640928     -5846.945227619     -5846.900307186         2.534227133
        29           14.500000         0.049447419       297.414118057     -5846.945080066     -5846.900306274         2.521309853
        30           15.000000         0.048363602       290.895229511     -5846.944626781     -5846.900291479         2.539340973
        31           15.500000         0.047554262       286.027243188     -5846.943935329     -5846.900265006         2.517223120
        32           16.000000         0.047796086       287.481755554     -5846.943179279     -5846.900237773         2.519844055
        33           16.500000         0.047743986       287.168388246     -5846.942555872     -5846.900221242         2.512310982
        34           17.000000         0.047731240       287.091723884     -5846.942204956     -5846.900222574         2.512681961
        35           17.500000         0.047308085       284.546549832     -5846.942117291     -5846.900244607         2.544989824
        36           18.000000         0.046489478       279.622828110     -5846.942147357     -5846.900283080         2.525878191
        37           18.500000         0.046264900       278.272048679     -5846.942113748     -5846.900325056         2.513433933
        38           19.000000         0.045722279       275.008312371     -5846.941892112     -5846.900355742         2.523662090
        39           19.500000         0.045918339       276.187566487     -5846.941463846     -5846.900374474         3.521291018
        40           20.000000         0.044407238       267.098663934     -5846.940912128     -5846.900388532         2.639471769
        41           20.500000         0.043655449       262.576840522     -5846.940371413     -5846.900404258         2.546428204
        42           21.000000         0.043987174       264.572082413     -5846.939952378     -5846.900420510         2.677525997
        43           21.500000         0.044229855       266.031748533     -5846.939734608     -5846.900435556         2.928697824
        44           22.000000         0.044867854       269.869156095     -5846.939719190     -5846.900451188         2.539734125
        45           22.500000         0.045547227       273.955423322     -5846.939834147     -5846.900469270         2.528650045
        46           23.000000         0.046050022       276.979606313     -5846.939949997     -5846.900488293         2.524030924
        47           23.500000         0.045645034       274.543706766     -5846.939917638     -5846.900502265         2.533109903
        48           24.000000         0.044914193       270.147874947     -5846.939627453     -5846.900504290         2.513116121
        49           24.500000         0.044699110       268.854206525     -5846.939057108     -5846.900495745         2.531496048
        50           25.000000         0.043334022       260.643532243     -5846.938293424     -5846.900482660         2.512588024
        51           25.500000         0.042341902       254.676177220     -5846.937519574     -5846.900477412         2.518482924
        52           26.000000         0.040826226       245.559753980     -5846.936906578     -5846.900498365         3.002933979
        53           26.500000         0.040879296       245.878958405     -5846.936507561     -5846.900536737         2.528508902
        54           27.000000         0.040221670       241.923498021     -5846.936250838     -5846.900575015         2.589002132
        55           27.500000         0.039326335       236.538279469     -5846.935993200     -5846.900609465         2.551698923
        56           28.000000         0.039263953       236.163064642     -5846.935605095     -5846.900638606         2.629153967
        57           28.500000         0.039280738       236.264023260     -5846.935031533     -5846.900653705         2.624214172
        58           29.000000         0.038237192       229.987352053     -5846.934308782     -5846.900650351         2.640841007
        59           29.500000         0.037043116       222.805276120     -5846.933568790     -5846.900662228         3.081212997
        60           30.000000         0.036219737       217.852849590     -5846.932930962     -5846.900680918         2.555720806
        61           30.500000         0.036025469       216.684377926     -5846.932491229     -5846.900687475         2.570137978
        62           31.000000         0.036553605       219.860986666     -5846.932297892     -5846.900689932         3.045287132
        63           31.500000         0.036944576       222.212581000     -5846.932324486     -5846.900690402         3.042069912
        64           32.000000         0.037920068       228.079926060     -5846.932508367     -5846.900707115         3.556768179
        65           32.500000         0.037869019       227.772879626     -5846.932711392     -5846.900715623         3.047033787
        66           33.000000         0.037834271       227.563878412     -5846.932808775     -5846.900724469         3.547104120
        67           33.500000         0.036723159       220.880813185     -5846.932727272     -5846.900745186         4.038106918
        68           34.000000         0.036767700       221.148717122     -5846.932476884     -5846.900761405         3.059383154
        69           34.500000         0.037074744       222.995510674     -5846.932147614     -5846.900769120         3.642923832
        70           35.000000         0.036854693       221.671957151     -5846.931863586     -5846.900771083         3.176020145
        71           35.500000         0.036737030       220.964241823     -5846.931710158     -5846.900765250         3.079582930
        72           36.000000         0.036547500       219.824265616     -5846.931673852     -5846.900755329         2.584317923
        73           36.500000         0.036671791       220.571847390     -5846.931664529     -5846.900758851         3.557494164
        74           37.000000         0.036240081       217.975217110     -5846.931534750     -5846.900760373         3.066192865
        75           37.500000         0.035447289       213.206763090     -5846.931172738     -5846.900749445         3.053069115
        76           38.000000         0.035110595       211.181631003     -5846.930558766     -5846.900720925         3.055493832
        77           38.500000         0.033629734       202.274616965     -5846.929764684     -5846.900666885         2.581935167
        78           39.000000         0.033340510       200.535006843     -5846.928974783     -5846.900653825         4.072661877
        79           39.500000         0.033733573       202.899181782     -5846.928308298     -5846.900680922         3.584269047
        80           40.000000         0.033200937       199.695506888     -5846.927814037     -5846.900705932         4.092648029
        81           40.500000         0.032328523       194.448152538     -5846.927532451     -5846.900721218         4.149339914
        82           41.000000         0.031485695       189.378749713     -5846.927447995     -5846.900746931         4.237509966
        83           41.500000         0.031188450       187.590893204     -5846.927451494     -5846.900758468         2.583307028
        84           42.000000         0.031323979       188.406064576     -5846.927430095     -5846.900755786         4.088361979
        85           42.500000         0.029958065       180.190426890     -5846.927287905     -5846.900737179         3.586877108
        86           43.000000         0.029471228       177.262219125     -5846.926985353     -5846.900695169         3.600356102
        87           43.500000         0.030156551       181.384272425     -5846.926593731     -5846.900658191         4.098490000
        88           44.000000         0.030476744       183.310156172     -5846.926230030     -5846.900633598         3.582145929
        89           44.500000         0.029978568       180.313745864     -5846.926025809     -5846.900615705         3.596368074
        90           45.000000         0.029373351       176.673517043     -5846.926065907     -5846.900620957         4.130120993
        91           45.500000         0.029898731       179.833546726     -5846.926301750     -5846.900638129         3.048554897
        92           46.000000         0.029679515       178.515017826     -5846.926603098     -5846.900664628         4.094896078
        93           46.500000         0.029883289       179.740670827     -5846.926808994     -5846.900679901         2.657991886
        94           47.000000         0.030326602       182.407085540     -5846.926881884     -5846.900747847         4.657494068
        95           47.500000         0.029351971       176.544918384     -5846.926758713     -5846.900825815         4.133910894
        96           48.000000         0.028496476       171.399325645     -5846.926438737     -5846.900846865         4.183480024
        97           48.500000         0.028216158       169.713283569     -5846.926061445     -5846.900849466         4.654389143
        98           49.000000         0.028576601       171.881260191     -5846.925715145     -5846.900832835         3.588388920
        99           49.500000         0.027725096       166.759666338     -5846.925469972     -5846.900786118         4.599916935
       100           50.000000         0.027970741       168.237160377     -5846.925356361     -5846.900706567         4.350204945
       101           50.500000         0.028558864       171.774575668     -5846.925426396     -5846.900670041         5.719439983
       102           51.000000         0.028491020       171.366510311     -5846.925602549     -5846.900671921         4.137933016
       103           51.500000         0.029561220       177.803504153     -5846.925827016     -5846.900740658         6.193295002
       104           52.000000         0.029528254       177.605216818     -5846.925969494     -5846.900824358         4.072489023
       105           52.500000         0.029038675       174.660522544     -5846.925933195     -5846.900859138         5.074203968
       106           53.000000         0.029717288       178.742213402     -5846.925759514     -5846.900847221         4.579464197
       107           53.500000         0.030647823       184.339154316     -5846.925541805     -5846.900786344         4.589819908
       108           54.000000         0.030187190       181.568557549     -5846.925434894     -5846.900708302         5.137221098
       109           54.500000         0.030027078       180.605523490     -5846.925564056     -5846.900660431         5.113008022
       110           55.000000         0.031763202       191.047883054     -5846.925914636     -5846.900639694         4.567133904
       111           55.500000         0.032661564       196.451310691     -5846.926469213     -5846.900711434         6.137460947
       112           56.000000         0.033458764       201.246274303     -5846.927035456     -5846.900811239         4.622831106
       113           56.500000         0.033576264       201.953006025     -5846.927426520     -5846.900852991         5.134891033
       114           57.000000         0.033522073       201.627059837     -5846.927586478     -5846.900831917         4.608456850
       115           57.500000         0.032814414       197.370666098     -5846.927647609     -5846.900864980         7.192372084
       116           58.000000         0.032449858       195.177951909     -5846.927615423     -5846.900895202         7.169507980
       117           58.500000         0.032233719       193.877931644     -5846.927547034     -5846.900906620         7.276352882
       118           59.000000         0.032305543       194.309931468     -5846.927473769     -5846.900862319         4.640675068
       119           59.500000         0.031977623       192.337575672     -5846.927515786     -5846.900839948         7.211364031
       120           60.000000         0.032489651       195.417299585     -5846.927681377     -5846.900842227         5.158029079
       121           60.500000         0.033346880       200.573318187     -5846.927845842     -5846.900782024         5.087272882
       122           61.000000         0.033504480       201.521246869     -5846.928078385     -5846.900802722         7.746410131
       123           61.500000         0.032795560       197.257262715     -5846.928244991     -5846.900843842         5.712015867
       124           62.000000         0.033575601       201.949020909     -5846.928298192     -5846.900905351         7.212927103
       125           62.500000         0.033495131       201.465011723     -5846.928178730     -5846.900931246         5.191700935
       126           63.000000         0.032946071       198.162549134     -5846.928073040     -5846.901039852         8.280107021
       127           63.500000         0.033702523       202.712425379     -5846.928121470     -5846.901257814         7.786484003
       128           64.000000         0.033343046       200.550257822     -5846.928491405     -5846.901649667         8.302983999
       129           64.500000         0.033562465       201.870009607     -5846.929139579     -5846.902125267         7.811447859
       130           65.000000         0.032901525       197.894617588     -5846.929553346     -5846.902205365         7.742946148
       131           65.500000         0.034183294       205.604145349     -5846.930277875     -5846.902517695        14.593483925
       132           66.000000         0.034862386       209.688719306     -5846.931114353     -5846.902950684        13.704852104
       133           66.500000         0.035220359       211.841835569     -5846.931518486     -5846.903040462        18.172902822
       134           67.000000         0.036180721       217.618182431     -5846.931656421     -5846.902987407        17.374259233
       135           67.500000         0.035536100       213.740943798     -5846.931719707     -5846.902959653        14.566515923
       136           68.000000         0.035013636       210.598450087     -5846.931708997     -5846.902897437        12.647532940
       137           68.500000         0.035434378       213.129107013     -5846.931720199     -5846.902825348        14.391973019
       138           69.000000         0.035731906       214.918667919     -5846.931843175     -5846.902785506        11.558006048
       139           69.500000         0.035337473       212.546248701     -5846.932130603     -5846.902814003        12.537139893
       140           70.000000         0.035557121       213.867378414     -5846.932454678     -5846.902808315         9.426380157
       141           70.500000         0.035994474       216.497950049     -5846.932805596     -5846.902811256        13.561595917
       142           71.000000         0.035196535       211.698543756     -5846.933146825     -5846.902862468         8.340154886
       143           71.500000         0.034909189       209.970223039     -5846.933329333     -5846.902874849        12.540417194
       144           72.000000         0.034388152       206.836313962     -5846.933198515     -5846.902724902         7.818080902
       145           72.500000         0.034608183       208.159750487     -5846.932914957     -5846.902554426        13.572654963
       146           73.000000         0.034771903       209.144482085     -5846.932600462     -5846.902423995         7.871642113
       147           73.500000         0.035974312       216.376681795     -5846.932369527     -5846.902370362        12.534171820
       148           74.000000         0.034966214       210.313218494     -5846.932209816     -5846.902326313         7.984983206
       149           74.500000         0.035320825       212.446112879     -5846.932236762     -5846.902405499        13.625605822
       150           75.000000         0.035344411       212.587978579     -5846.932269987     -5846.902477584         8.379041195
       151           75.500000         0.035527665       213.690210052     -5846.932239265     -5846.902543035        14.206303835
       152           76.000000         0.035403031       212.940565788     -5846.932222123     -5846.902718043        12.621098042
       153           76.500000         0.035106258       211.155546346     -5846.931952087     -5846.902746215         9.940315962
       154           77.000000         0.034398279       206.897228386     -5846.931783027     -5846.902946807        15.941620111
       155           77.500000         0.034356137       206.643753793     -5846.931434066     -5846.902986801        13.133168936
       156           78.000000         0.034159675       205.462080740     -5846.931096329     -5846.903004761        17.173981905
       157           78.500000         0.033856660       203.639522962     -5846.930860605     -5846.903042880         9.946985006
       158           79.000000         0.035175436       211.571633924     -5846.930785846     -5846.903138623        17.177687168
       159           79.500000         0.035041319       210.764953953     -5846.930696441     -5846.903126265        15.977643967
       160           80.000000         0.034648451       208.401951229     -5846.930508407     -5846.902964150        13.782283068
       161           80.500000         0.033785962       203.214291343     -5846.930438034     -5846.902928783        14.240673780
       162           81.000000         0.033183900       199.593036001     -5846.930302394     -5846.902900781         8.918480158
       163           81.500000         0.033210471       199.752854904     -5846.930154947     -5846.902978112        16.745364904
       164           82.000000         0.032888194       197.814438592     -5846.929712886     -5846.902882398         8.893773079
       165           82.500000         0.031748737       190.960883579     -5846.929382282     -5846.902964560        17.298830032
       166           83.000000         0.030884502       185.762719588     -5846.929096328     -5846.903066744        16.991730928
       167           83.500000         0.031074874       186.907761303     -5846.928966452     -5846.903222508        16.520041943
       168           84.000000         0.031160977       187.425650541     -5846.928762733     -5846.903179060        13.882606983
       169           84.500000         0.031405052       188.893699878     -5846.928470150     -5846.902962114        14.885672092
       170           85.000000         0.031295718       188.236081351     -5846.928196156     -5846.902755624        12.675419092
       171           85.500000         0.031024948       186.607464260     -5846.927963719     -5846.902648745        13.669983864
       172           86.000000         0.030751593       184.963306773     -5846.927633478     -5846.902526066         9.394580126
       173           86.500000         0.030748726       184.946058415     -5846.927471549     -5846.902634558        14.643479824
       174           87.000000         0.031278611       188.133188409     -5846.927218675     -5846.902665808         9.406730175
       175           87.500000         0.030687219       184.576110613     -5846.927206868     -5846.902891017        18.153818846
       176           88.000000         0.031348902       188.555972949     -5846.927245812     -5846.903058189        15.853957176
       177           88.500000         0.031426990       189.025654062     -5846.927064193     -5846.902858047        15.379820824
       178           89.000000         0.031576095       189.922479555     -5846.926885278     -5846.902504969        13.193027973
       179           89.500000         0.032692084       196.634883216     -5846.927181189     -5846.902493718        17.019009113
       180           90.000000         0.033727213       202.860931489     -5846.927553541     -5846.902488933         9.392433882
       181           90.500000         0.034787967       209.241104728     -5846.928071537     -5846.902620609        17.864723206
       182           91.000000         0.034018483       204.612850256     -5846.928391719     -5846.902618481        14.300075769
       183           91.500000         0.035040159       210.757979643     -5846.928691738     -5846.902659748        16.891977072
       184           92.000000         0.035892526       215.884756518     -5846.929108978     -5846.902819946        10.434180975
       185           92.500000         0.036490798       219.483215867     -5846.929610094     -5846.902970897        17.405807018
       186           93.000000         0.038580990       232.055212278     -5846.930074207     -5846.902918714        16.419507980
       187           93.500000         0.038809977       233.432508985     -5846.930471000     -5846.902628411        14.242030144
       188           94.000000         0.039345984       236.656461393     -5846.931260968     -5846.902642678        17.071454048
       189           94.500000         0.040129182       241.367204710     -5846.931906850     -5846.902532191         9.922068834
       190           95.000000         0.041295783       248.384025698     -5846.932647839     -5846.902632482        20.172798157
       191           95.500000         0.042253754       254.145986114     -5846.933352667     -5846.902850939        19.509547949
       192           96.000000         0.042203801       253.845531423     -5846.933803497     -5846.902957375        19.184692860
       193           96.500000         0.041981389       252.507775205     -5846.933848641     -5846.902750264        19.032746077
       194           97.000000         0.042421827       255.156903248     -5846.933917755     -5846.902590616        19.543849945
       195           97.500000         0.042326997       254.586523773     -5846.934212293     -5846.902625156        18.013582945
       196           98.000000         0.042266924       254.225202514     -5846.934412039     -5846.902506254        19.309332132
       197           98.500000         0.042276711       254.284069847     -5846.934747506     -5846.902461345        18.342809916
       198           99.000000         0.043208709       259.889806549     -5846.935160728     -5846.902467817        14.507174969
       199           99.500000         0.044610038       268.318456665     -5846.935542793     -5846.902472071        14.564001083
       200          100.000000         0.044653441       268.579514705     -5846.935793153     -5846.902442277        13.398191929
       201          100.500000         0.045842760       275.732976153     -5846.935966969     -5846.902481841        17.248609066
       202          101.000000         0.046051771       276.990131108     -5846.935882854     -5846.902398336        15.901094913
       203          101.500000         0.045565696       274.066504534     -5846.936044551     -5846.902619177        21.065106153
       204          102.000000         0.045965779       276.472905901     -5846.935930506     -5846.902510377        14.859802961
       205          102.500000         0.046608054       280.336037414     -5846.935895131     -5846.902348572        19.651998043
       206          103.000000         0.045907103       276.119988738     -5846.936010240     -5846.902201063        17.899836063
       207          103.500000         0.046198974       277.875518208     -5846.936581706     -5846.902432371        24.679903984
       208          104.000000         0.045994327       276.644616673     -5846.936832341     -5846.902353123        21.346543789
       209          104.500000         0.046136004       277.496767622     -5846.936801037     -5846.902078096        23.293552160
       210          105.000000         0.046412956       279.162568769     -5846.937139584     -5846.902274514        23.274236917
       211          105.500000         0.047051981       283.006146612     -5846.936957657     -5846.902021100        20.872630119
