      52
 i =        0, time =        0.000, E =     -5846.9493777529
 Pt         0.0000000000        0.0000000000        0.0000000000
 Pt         0.0000000000        0.0000000000        0.0000000000
 Pt         0.0000000000        0.0000000000        0.0000000000
 Pt         0.0000000000        0.0000000000        0.0000000000
 Pt         0.0000000000        0.0000000000        0.0000000000
 Pt         0.0000000000        0.0000000000        0.0000000000
 Pt         0.0000000000        0.0000000000        0.0000000000
 Pt         0.0000000000        0.0000000000        0.0000000000
 Pt         0.0000000000        0.0000000000        0.0000000000
 Pt         0.0000000000        0.0000000000        0.0000000000
 Pt         0.0000000000        0.0000000000        0.0000000000
 Pt         0.0000000000        0.0000000000        0.0000000000
 Pt         0.0000000000        0.0000000000        0.0000000000
 Pt         0.0000000000        0.0000000000        0.0000000000
 Pt         0.0000000000        0.0000000000        0.0000000000
 Pt         0.0000000000        0.0000000000        0.0000000000
 Pt         0.0000787327       -0.0000516786       -0.0000241703
 Pt         0.0000272146       -0.0000238518       -0.0000348205
 Pt        -0.0000216358       -0.0000373084       -0.0000611526
 Pt         0.0001021719       -0.0000777712        0.0000270707
 Pt         0.0000950573       -0.0000411801        0.0000043836
 Pt         0.0000314872       -0.0000391231        0.0000608907
 Pt        -0.0000006468       -0.0000383871        0.0000343439
 Pt        -0.0000787562       -0.0000624938       -0.0000490252
 Pt        -0.0000603196        0.0000466910       -0.0000580789
 Pt        -0.0000114556        0.0001018723       -0.0000435735
 Pt        -0.0000230100        0.0000826941       -0.0000446896
 Pt         0.0000368054       -0.0000195816        0.0000545133
 Pt        -0.0000004173        0.0000165556       -0.0000718894
 Pt        -0.0000377484       -0.0000147147        0.0000372010
 Pt        -0.0000079318        0.0000899835       -0.0000077210
 Pt         0.0000998976        0.0000283718        0.0000055687
 Pt        -0.0000055135       -0.0000781665        0.0000478225
 Pt        -0.0000179667        0.0000187395        0.0000095101
 Pt         0.0000285523       -0.0000014513       -0.0000206995
 Pt        -0.0000354696        0.0000437577        0.0000152318
 Pt         0.0000293007       -0.0000087875        0.0000971705
 Pt        -0.0000597772       -0.0000016941       -0.0000321197
 Pt         0.0000748033       -0.0000013110       -0.0000394313
 Pt        -0.0001451335       -0.0000159547       -0.0000019584
 Pt        -0.0000563019        0.0000387618       -0.0000429552
 Pt         0.0000754658        0.0000492073        0.0000573566
 Pt         0.0000259032       -0.0000814669        0.0000147677
 Pt         0.0000167458        0.0000003941       -0.0000087572
 Pt        -0.0000878914       -0.0000145757        0.0000212521
 Pt        -0.0000673937       -0.0000007402       -0.0000302483
 Pt        -0.0000060770        0.0000633860        0.0000375859
 Pt        -0.0000368187        0.0000280502        0.0000420734
  O         0.0003712741        0.0002056041        0.0002130421
  O         0.0000630282       -0.0001686328       -0.0001367800
  H         0.0013715130        0.0005282104       -0.0004644322
  H        -0.0008859907       -0.0007718086        0.0001342043
      52
 i =        1, time =        0.500, E =     -5846.9494608328
 Pt         0.0000000000        0.0000000000        0.0000000000
 Pt         0.0000000000        0.0000000000        0.0000000000
 Pt         0.0000000000        0.0000000000        0.0000000000
 Pt         0.0000000000        0.0000000000        0.0000000000
 Pt         0.0000000000        0.0000000000        0.0000000000
 Pt         0.0000000000        0.0000000000        0.0000000000
 Pt         0.0000000000        0.0000000000        0.0000000000
 Pt         0.0000000000        0.0000000000        0.0000000000
 Pt         0.0000000000        0.0000000000        0.0000000000
 Pt         0.0000000000        0.0000000000        0.0000000000
 Pt         0.0000000000        0.0000000000        0.0000000000
 Pt         0.0000000000        0.0000000000        0.0000000000
 Pt         0.0000000000        0.0000000000        0.0000000000
 Pt         0.0000000000        0.0000000000        0.0000000000
 Pt         0.0000000000        0.0000000000        0.0000000000
 Pt         0.0000000000        0.0000000000        0.0000000000
 Pt         0.0000784443       -0.0000517370       -0.0000244417
 Pt         0.0000271415       -0.0000237575       -0.0000347168
 Pt        -0.0000215575       -0.0000371351       -0.0000609777
 Pt         0.0001018311       -0.0000773745        0.0000269156
 Pt         0.0000947970       -0.0000410716        0.0000040674
 Pt         0.0000313210       -0.0000390356        0.0000607096
 Pt        -0.0000004209       -0.0000384004        0.0000342105
 Pt        -0.0000783836       -0.0000623614       -0.0000488994
 Pt        -0.0000602881        0.0000466044       -0.0000576968
 Pt        -0.0000113819        0.0001015769       -0.0000435195
 Pt        -0.0000229248        0.0000824009       -0.0000445454
 Pt         0.0000367307       -0.0000195411        0.0000542734
 Pt        -0.0000003875        0.0000164590       -0.0000716969
 Pt        -0.0000375626       -0.0000147406        0.0000370367
 Pt        -0.0000078874        0.0000897105       -0.0000077224
 Pt         0.0000994807        0.0000282870        0.0000055246
 Pt        -0.0000054814       -0.0000779243        0.0000477244
 Pt        -0.0000178226        0.0000186285        0.0000094351
 Pt         0.0000286401       -0.0000012200       -0.0000205601
 Pt        -0.0000349616        0.0000440193        0.0000157576
 Pt         0.0000294134       -0.0000087803        0.0000969458
 Pt        -0.0000594180       -0.0000018689       -0.0000318893
 Pt         0.0000746419       -0.0000017977       -0.0000392339
 Pt        -0.0001447895       -0.0000161777       -0.0000018692
 Pt        -0.0000562956        0.0000390641       -0.0000424749
 Pt         0.0000744648        0.0000491995        0.0000574917
 Pt         0.0000258278       -0.0000810562        0.0000147098
 Pt         0.0000166267        0.0000003211       -0.0000085916
 Pt        -0.0000877568       -0.0000145353        0.0000213904
 Pt        -0.0000669918       -0.0000006959       -0.0000300514
 Pt        -0.0000060729        0.0000632393        0.0000375879
 Pt        -0.0000367117        0.0000279108        0.0000420242
  O         0.0003702086        0.0002067598        0.0002102649
  O         0.0000607173       -0.0001700295       -0.0001371379
  H         0.0013722813        0.0005379258       -0.0004713559
  H        -0.0008683520       -0.0007771747        0.0001113480
      52
 i =        2, time =        1.000, E =     -5846.9492405674
 Pt         0.0000000000        0.0000000000        0.0000000000
 Pt         0.0000000000        0.0000000000        0.0000000000
 Pt         0.0000000000        0.0000000000        0.0000000000
 Pt         0.0000000000        0.0000000000        0.0000000000
 Pt         0.0000000000        0.0000000000        0.0000000000
 Pt         0.0000000000        0.0000000000        0.0000000000
 Pt         0.0000000000        0.0000000000        0.0000000000
 Pt         0.0000000000        0.0000000000        0.0000000000
 Pt         0.0000000000        0.0000000000        0.0000000000
 Pt         0.0000000000        0.0000000000        0.0000000000
 Pt         0.0000000000        0.0000000000        0.0000000000
 Pt         0.0000000000        0.0000000000        0.0000000000
 Pt         0.0000000000        0.0000000000        0.0000000000
 Pt         0.0000000000        0.0000000000        0.0000000000
 Pt         0.0000000000        0.0000000000        0.0000000000
 Pt         0.0000000000        0.0000000000        0.0000000000
 Pt         0.0000773999       -0.0000512907       -0.0000244720
 Pt         0.0000268085       -0.0000234385       -0.0000342777
 Pt        -0.0000212711       -0.0000366068       -0.0000602123
 Pt         0.0001005163       -0.0000762372        0.0000264985
 Pt         0.0000936266       -0.0000405697        0.0000037192
 Pt         0.0000308583       -0.0000385781        0.0000599459
 Pt        -0.0000001999       -0.0000380437        0.0000337505
 Pt        -0.0000772613       -0.0000616243       -0.0000483027
 Pt        -0.0000596656        0.0000460722       -0.0000567581
 Pt        -0.0000112002        0.0001003066       -0.0000430434
 Pt        -0.0000226154        0.0000813183       -0.0000439687
 Pt         0.0000363064       -0.0000193056        0.0000535111
 Pt        -0.0000003545        0.0000161985       -0.0000708134
 Pt        -0.0000370155       -0.0000146239        0.0000365221
 Pt        -0.0000077699        0.0000885762       -0.0000076526
 Pt         0.0000981177        0.0000279230        0.0000054248
 Pt        -0.0000053981       -0.0000769349        0.0000471640
 Pt        -0.0000175108        0.0000183371        0.0000092664
 Pt         0.0000284404       -0.0000009817       -0.0000202252
 Pt        -0.0000341238        0.0000438551        0.0000161328
 Pt         0.0000292416       -0.0000086880        0.0000957932
 Pt        -0.0000584938       -0.0000020289       -0.0000313567
 Pt         0.0000737595       -0.0000022635       -0.0000386553
 Pt        -0.0001430578       -0.0000162395       -0.0000017612
 Pt        -0.0000557449        0.0000389884       -0.0000415969
 Pt         0.0000727637        0.0000487145        0.0000570704
 Pt         0.0000255005       -0.0000798714        0.0000145083
 Pt         0.0000163546        0.0000002458       -0.0000083507
 Pt        -0.0000867744       -0.0000143527        0.0000213250
 Pt        -0.0000659581       -0.0000006436       -0.0000295673
 Pt        -0.0000060149        0.0000624873        0.0000372270
 Pt        -0.0000362590        0.0000275055        0.0000415718
  O         0.0003678134        0.0002052309        0.0002070147
  O         0.0000534394       -0.0001693764       -0.0001329591
  H         0.0013119933        0.0005204842       -0.0004994624
  H        -0.0007583673       -0.0007463131        0.0000374852
      52
 i =        3, time =        1.500, E =     -5846.9488510300
 Pt         0.0000000000        0.0000000000        0.0000000000
 Pt         0.0000000000        0.0000000000        0.0000000000
 Pt         0.0000000000        0.0000000000        0.0000000000
 Pt         0.0000000000        0.0000000000        0.0000000000
 Pt         0.0000000000        0.0000000000        0.0000000000
 Pt         0.0000000000        0.0000000000        0.0000000000
 Pt         0.0000000000        0.0000000000        0.0000000000
 Pt         0.0000000000        0.0000000000        0.0000000000
 Pt         0.0000000000        0.0000000000        0.0000000000
 Pt         0.0000000000        0.0000000000        0.0000000000
 Pt         0.0000000000        0.0000000000        0.0000000000
 Pt         0.0000000000        0.0000000000        0.0000000000
 Pt         0.0000000000        0.0000000000        0.0000000000
 Pt         0.0000000000        0.0000000000        0.0000000000
 Pt         0.0000000000        0.0000000000        0.0000000000
 Pt         0.0000000000        0.0000000000        0.0000000000
 Pt         0.0000782886       -0.0000521244       -0.0000251149
 Pt         0.0000271474       -0.0000237086       -0.0000346940
 Pt        -0.0000215159       -0.0000369947       -0.0000609488
 Pt         0.0001017199       -0.0000770063        0.0000267395
 Pt         0.0000947992       -0.0000410843        0.0000034647
 Pt         0.0000311704       -0.0000390916        0.0000606828
 Pt         0.0000000114       -0.0000386406        0.0000341367
 Pt        -0.0000780721       -0.0000624248       -0.0000489137
 Pt        -0.0000605268        0.0000466957       -0.0000572325
 Pt        -0.0000112990        0.0001015467       -0.0000436420
 Pt        -0.0000228669        0.0000822713       -0.0000444875
 Pt         0.0000367946       -0.0000195462        0.0000540853
 Pt        -0.0000003303        0.0000163371       -0.0000716998
 Pt        -0.0000373925       -0.0000148736        0.0000369256
 Pt        -0.0000078489        0.0000896583       -0.0000077772
 Pt         0.0000992165        0.0000282496        0.0000054573
 Pt        -0.0000054508       -0.0000778715        0.0000477809
 Pt        -0.0000176387        0.0000185023        0.0000093249
 Pt         0.0000289433       -0.0000007677       -0.0000203970
 Pt        -0.0000341376        0.0000447937        0.0000169242
 Pt         0.0000298036       -0.0000088131        0.0000970423
 Pt        -0.0000590353       -0.0000022467       -0.0000316103
 Pt         0.0000747193       -0.0000027926       -0.0000390373
 Pt        -0.0001449104       -0.0000167070       -0.0000016944
 Pt        -0.0000565882        0.0000398937       -0.0000417635
 Pt         0.0000728821        0.0000494461        0.0000580794
 Pt         0.0000258071       -0.0000806863        0.0000146670
 Pt         0.0000164972        0.0000001762       -0.0000083239
 Pt        -0.0000879603       -0.0000145268        0.0000217994
 Pt        -0.0000665817       -0.0000006058       -0.0000298223
 Pt        -0.0000061116        0.0000633013        0.0000377977
 Pt        -0.0000367203        0.0000277895        0.0000421614
  O         0.0003765871        0.0002080733        0.0002102492
  O         0.0000439941       -0.0001723988       -0.0001295140
  H         0.0012417594        0.0004955297       -0.0005626539
  H        -0.0005983149       -0.0007082611       -0.0000758899
      52
 i =        4, time =        2.000, E =     -5846.9484376266
 Pt         0.0000000000        0.0000000000        0.0000000000
 Pt         0.0000000000        0.0000000000        0.0000000000
 Pt         0.0000000000        0.0000000000        0.0000000000
 Pt         0.0000000000        0.0000000000        0.0000000000
 Pt         0.0000000000        0.0000000000        0.0000000000
 Pt         0.0000000000        0.0000000000        0.0000000000
 Pt         0.0000000000        0.0000000000        0.0000000000
 Pt         0.0000000000        0.0000000000        0.0000000000
 Pt         0.0000000000        0.0000000000        0.0000000000
 Pt         0.0000000000        0.0000000000        0.0000000000
 Pt         0.0000000000        0.0000000000        0.0000000000
 Pt         0.0000000000        0.0000000000        0.0000000000
 Pt         0.0000000000        0.0000000000        0.0000000000
 Pt         0.0000000000        0.0000000000        0.0000000000
 Pt         0.0000000000        0.0000000000        0.0000000000
 Pt         0.0000000000        0.0000000000        0.0000000000
 Pt         0.0000786961       -0.0000526380       -0.0000256062
 Pt         0.0000273223       -0.0000238365       -0.0000348966
 Pt        -0.0000216286       -0.0000371568       -0.0000613090
 Pt         0.0001023064       -0.0000773035        0.0000268122
 Pt         0.0000953935       -0.0000413500        0.0000031882
 Pt         0.0000312949       -0.0000393728        0.0000610506
 Pt         0.0000002185       -0.0000390041        0.0000343167
 Pt        -0.0000784060       -0.0000628402       -0.0000492257
 Pt        -0.0000610101        0.0000470374       -0.0000573501
 Pt        -0.0000113292        0.0001021677       -0.0000439725
 Pt        -0.0000229739        0.0000827233       -0.0000447306
 Pt         0.0000370627       -0.0000196609        0.0000543267
 Pt        -0.0000003041        0.0000163704       -0.0000721467
 Pt        -0.0000375394       -0.0000150332        0.0000371081
 Pt        -0.0000078821        0.0000901935       -0.0000078571
 Pt         0.0000997162        0.0000283958        0.0000054531
 Pt        -0.0000054706       -0.0000783341        0.0000481038
 Pt        -0.0000176600        0.0000185520        0.0000093208
 Pt         0.0000292610       -0.0000005481       -0.0000204449
 Pt        -0.0000339392        0.0000454668        0.0000176269
 Pt         0.0000301867       -0.0000088848        0.0000977045
 Pt        -0.0000592180       -0.0000024584       -0.0000316724
 Pt         0.0000752196       -0.0000033140       -0.0000391739
 Pt        -0.0001458838       -0.0000170730       -0.0000016138
 Pt        -0.0000570854        0.0000405624       -0.0000416780
 Pt         0.0000725512        0.0000498742        0.0000587379
 Pt         0.0000259520       -0.0000810096        0.0000147333
 Pt         0.0000165446        0.0000001051       -0.0000082516
 Pt        -0.0000886068       -0.0000146098        0.0000221486
 Pt        -0.0000668044       -0.0000005632       -0.0000298939
 Pt        -0.0000061748        0.0000637312        0.0000381387
 Pt        -0.0000369637        0.0000279050        0.0000424957
  O         0.0003844774        0.0002087537        0.0002131565
  O         0.0000319416       -0.0001736018       -0.0001234603
  H         0.0011308426        0.0004494661       -0.0006393655
  H        -0.0003849915       -0.0006439569       -0.0002170366
      52
 i =        5, time =        2.500, E =     -5846.9481261955
 Pt         0.0000000000        0.0000000000        0.0000000000
 Pt         0.0000000000        0.0000000000        0.0000000000
 Pt         0.0000000000        0.0000000000        0.0000000000
 Pt         0.0000000000        0.0000000000        0.0000000000
 Pt         0.0000000000        0.0000000000        0.0000000000
 Pt         0.0000000000        0.0000000000        0.0000000000
 Pt         0.0000000000        0.0000000000        0.0000000000
 Pt         0.0000000000        0.0000000000        0.0000000000
 Pt         0.0000000000        0.0000000000        0.0000000000
 Pt         0.0000000000        0.0000000000        0.0000000000
 Pt         0.0000000000        0.0000000000        0.0000000000
 Pt         0.0000000000        0.0000000000        0.0000000000
 Pt         0.0000000000        0.0000000000        0.0000000000
 Pt         0.0000000000        0.0000000000        0.0000000000
 Pt         0.0000000000        0.0000000000        0.0000000000
 Pt         0.0000000000        0.0000000000        0.0000000000
 Pt         0.0000798362       -0.0000536422       -0.0000263379
 Pt         0.0000277546       -0.0000241902       -0.0000354231
 Pt        -0.0000219430       -0.0000376662       -0.0000622382
 Pt         0.0001038534       -0.0000783213        0.0000271306
 Pt         0.0000968799       -0.0000420042        0.0000029409
 Pt         0.0000317146       -0.0000400281        0.0000619903
 Pt         0.0000004226       -0.0000397344        0.0000348197
 Pt        -0.0000794723       -0.0000638387       -0.0000499972
 Pt        -0.0000620547        0.0000478218       -0.0000579964
 Pt        -0.0000114666        0.0001037443       -0.0000447124
 Pt        -0.0000232908        0.0000839497       -0.0000453879
 Pt         0.0000376813       -0.0000199531        0.0000550730
 Pt        -0.0000002806        0.0000165513       -0.0000732657
 Pt        -0.0000380357       -0.0000153338        0.0000376417
 Pt        -0.0000079910        0.0000915716       -0.0000080127
 Pt         0.0001011542        0.0000287998        0.0000054964
 Pt        -0.0000055416       -0.0000795306        0.0000488744
 Pt        -0.0000178470        0.0000187725        0.0000093978
 Pt         0.0000298430       -0.0000003334       -0.0000206849
 Pt        -0.0000340542        0.0000465731        0.0000185079
 Pt         0.0000308550       -0.0000090401        0.0000992853
 Pt        -0.0000599552       -0.0000027004       -0.0000320319
 Pt         0.0000764196       -0.0000038753       -0.0000396688
 Pt        -0.0001482257       -0.0000175991       -0.0000015445
 Pt        -0.0000581151        0.0000416162       -0.0000419856
 Pt         0.0000728943        0.0000507666        0.0000599496
 Pt         0.0000263350       -0.0000820915        0.0000149342
 Pt         0.0000167517        0.0000000351       -0.0000082622
 Pt        -0.0000900787       -0.0000148267        0.0000227131
 Pt        -0.0000676571       -0.0000005252       -0.0000302436
 Pt        -0.0000062999        0.0000647586        0.0000388369
 Pt        -0.0000375584        0.0000282828        0.0000432292
  O         0.0003966057        0.0002103431        0.0002185723
  O         0.0000192502       -0.0001754152       -0.0001176316
  H         0.0010095590        0.0003923037       -0.0007314503
  H        -0.0001478588       -0.0005683807       -0.0003744971
      52
 i =        6, time =        3.000, E =     -5846.9479916991
 Pt         0.0000000000        0.0000000000        0.0000000000
 Pt         0.0000000000        0.0000000000        0.0000000000
 Pt         0.0000000000        0.0000000000        0.0000000000
 Pt         0.0000000000        0.0000000000        0.0000000000
 Pt         0.0000000000        0.0000000000        0.0000000000
 Pt         0.0000000000        0.0000000000        0.0000000000
 Pt         0.0000000000        0.0000000000        0.0000000000
 Pt         0.0000000000        0.0000000000        0.0000000000
 Pt         0.0000000000        0.0000000000        0.0000000000
 Pt         0.0000000000        0.0000000000        0.0000000000
 Pt         0.0000000000        0.0000000000        0.0000000000
 Pt         0.0000000000        0.0000000000        0.0000000000
 Pt         0.0000000000        0.0000000000        0.0000000000
 Pt         0.0000000000        0.0000000000        0.0000000000
 Pt         0.0000000000        0.0000000000        0.0000000000
 Pt         0.0000000000        0.0000000000        0.0000000000
 Pt         0.0000801163       -0.0000540702       -0.0000267893
 Pt         0.0000278916       -0.0000242871       -0.0000355674
 Pt        -0.0000220214       -0.0000377709       -0.0000624952
 Pt         0.0001042902       -0.0000784959        0.0000271523
 Pt         0.0000973270       -0.0000422096        0.0000026607
 Pt         0.0000317963       -0.0000402604        0.0000622663
 Pt         0.0000006177       -0.0000400411        0.0000349511
 Pt        -0.0000796845       -0.0000641479       -0.0000502316
 Pt        -0.0000624248        0.0000480959       -0.0000580127
 Pt        -0.0000114822        0.0001042080       -0.0000449711
 Pt        -0.0000233525        0.0000842763       -0.0000455544
 Pt         0.0000378997       -0.0000200248        0.0000552249
 Pt        -0.0000002541        0.0000165488       -0.0000735959
 Pt        -0.0000381218       -0.0000154702        0.0000377753
 Pt        -0.0000080162        0.0000919666       -0.0000080847
 Pt         0.0001015125        0.0000288871        0.0000054773
 Pt        -0.0000055531       -0.0000798760        0.0000491186
 Pt        -0.0000178428        0.0000187885        0.0000093673
 Pt         0.0000300958       -0.0000001143       -0.0000207038
 Pt        -0.0000337984        0.0000471897        0.0000192053
 Pt         0.0000311961       -0.0000090993        0.0000998068
 Pt        -0.0000600491       -0.0000029218       -0.0000320485
 Pt         0.0000767963       -0.0000044066       -0.0000397293
 Pt        -0.0001489822       -0.0000179376       -0.0000014546
 Pt        -0.0000585202        0.0000422305       -0.0000418454
 Pt         0.0000724482        0.0000511124        0.0000605232
 Pt         0.0000264304       -0.0000822937        0.0000149715
 Pt         0.0000167841       -0.0000000350       -0.0000081896
 Pt        -0.0000905813       -0.0000148818        0.0000230434
 Pt        -0.0000677883       -0.0000004811       -0.0000302668
 Pt        -0.0000063619        0.0000650930        0.0000391197
 Pt        -0.0000377552        0.0000283587        0.0000435012
  O         0.0004042815        0.0002084936        0.0002217046
  O         0.0000068396       -0.0001740875       -0.0001104909
  H         0.0008688877        0.0003182356       -0.0008172098
  H         0.0000965110       -0.0004740778       -0.0005287184
      52
 i =        7, time =        3.500, E =     -5846.9480320458
 Pt         0.0000000000        0.0000000000        0.0000000000
 Pt         0.0000000000        0.0000000000        0.0000000000
 Pt         0.0000000000        0.0000000000        0.0000000000
 Pt         0.0000000000        0.0000000000        0.0000000000
 Pt         0.0000000000        0.0000000000        0.0000000000
 Pt         0.0000000000        0.0000000000        0.0000000000
 Pt         0.0000000000        0.0000000000        0.0000000000
 Pt         0.0000000000        0.0000000000        0.0000000000
 Pt         0.0000000000        0.0000000000        0.0000000000
 Pt         0.0000000000        0.0000000000        0.0000000000
 Pt         0.0000000000        0.0000000000        0.0000000000
 Pt         0.0000000000        0.0000000000        0.0000000000
 Pt         0.0000000000        0.0000000000        0.0000000000
 Pt         0.0000000000        0.0000000000        0.0000000000
 Pt         0.0000000000        0.0000000000        0.0000000000
 Pt         0.0000000000        0.0000000000        0.0000000000
 Pt         0.0000796870       -0.0000540178       -0.0000270020
 Pt         0.0000277848       -0.0000241729       -0.0000353959
 Pt        -0.0000219048       -0.0000375429       -0.0000621967
 Pt         0.0001038112       -0.0000779773        0.0000269302
 Pt         0.0000969153       -0.0000420447        0.0000023604
 Pt         0.0000316004       -0.0000401435        0.0000619944
 Pt         0.0000007998       -0.0000399957        0.0000347764
 Pt        -0.0000791942       -0.0000638862       -0.0000500220
 Pt        -0.0000622340        0.0000479478       -0.0000575130
 Pt        -0.0000113985        0.0001037529       -0.0000448305
 Pt        -0.0000232029        0.0000838611       -0.0000453157
 Pt         0.0000377872       -0.0000199136        0.0000548873
 Pt        -0.0000002262        0.0000163946       -0.0000732740
 Pt        -0.0000378704       -0.0000154691        0.0000375801
 Pt        -0.0000079725        0.0000915501       -0.0000080874
 Pt         0.0001009823        0.0000287125        0.0000054076
 Pt        -0.0000055155       -0.0000795196        0.0000489272
 Pt        -0.0000176822        0.0000186368        0.0000092485
 Pt         0.0000300726        0.0000001036       -0.0000205424
 Pt        -0.0000332449        0.0000473954        0.0000197382
 Pt         0.0000312629       -0.0000090796        0.0000994531
 Pt        -0.0000596159       -0.0000031229       -0.0000317847
 Pt         0.0000764914       -0.0000049041       -0.0000394317
 Pt        -0.0001484288       -0.0000181156       -0.0000013493
 Pt        -0.0000584060        0.0000424734       -0.0000413433
 Pt         0.0000713666        0.0000510031        0.0000605640
 Pt         0.0000262873       -0.0000817740        0.0000148737
 Pt         0.0000166742       -0.0000001033       -0.0000080514
 Pt        -0.0000902804       -0.0000148033        0.0000231773
 Pt        -0.0000673285       -0.0000004326       -0.0000300227
 Pt        -0.0000063722        0.0000648547        0.0000390574
 Pt        -0.0000376231        0.0000281868        0.0000433909
  O         0.0004073051        0.0002035453        0.0002225175
  O        -0.0000036415       -0.0001697836       -0.0001032082
  H         0.0007257709        0.0002323856       -0.0008889805
  H         0.0003221521       -0.0003688947       -0.0006646901
      52
 i =        8, time =        4.000, E =     -5846.9481641172
 Pt         0.0000000000        0.0000000000        0.0000000000
 Pt         0.0000000000        0.0000000000        0.0000000000
 Pt         0.0000000000        0.0000000000        0.0000000000
 Pt         0.0000000000        0.0000000000        0.0000000000
 Pt         0.0000000000        0.0000000000        0.0000000000
 Pt         0.0000000000        0.0000000000        0.0000000000
 Pt         0.0000000000        0.0000000000        0.0000000000
 Pt         0.0000000000        0.0000000000        0.0000000000
 Pt         0.0000000000        0.0000000000        0.0000000000
 Pt         0.0000000000        0.0000000000        0.0000000000
 Pt         0.0000000000        0.0000000000        0.0000000000
 Pt         0.0000000000        0.0000000000        0.0000000000
 Pt         0.0000000000        0.0000000000        0.0000000000
 Pt         0.0000000000        0.0000000000        0.0000000000
 Pt         0.0000000000        0.0000000000        0.0000000000
 Pt         0.0000000000        0.0000000000        0.0000000000
 Pt         0.0000800806       -0.0000545242       -0.0000274957
 Pt         0.0000279691       -0.0000243127       -0.0000355893
 Pt        -0.0000220139       -0.0000377042       -0.0000625389
 Pt         0.0001044138       -0.0000782653        0.0000269818
 Pt         0.0000975096       -0.0000423179        0.0000020856
 Pt         0.0000317347       -0.0000404494        0.0000623671
 Pt         0.0000009841       -0.0000403674        0.0000349644
 Pt        -0.0000795242       -0.0000642822       -0.0000503307
 Pt        -0.0000626794        0.0000482996       -0.0000576037
 Pt        -0.0000114351        0.0001043747       -0.0000451526
 Pt        -0.0000232882        0.0000843171       -0.0000455434
 Pt         0.0000380706       -0.0000200021        0.0000551154
 Pt        -0.0000002013        0.0000164028       -0.0000737090
 Pt        -0.0000380094       -0.0000156281        0.0000377785
 Pt        -0.0000080134        0.0000920828       -0.0000081766
 Pt         0.0001015061        0.0000288288        0.0000053914
 Pt        -0.0000055347       -0.0000799923        0.0000492415
 Pt        -0.0000177054        0.0000186755        0.0000092189
 Pt         0.0000303522        0.0000003219       -0.0000205961