      52
 i =        0, time =        0.000, E =     -5846.9493777529
 Pt         0.0000000000        0.0000000000        0.0000000000
 Pt         0.0000000000        0.0000000000        0.0000000000
 Pt         0.0000000000        0.0000000000        0.0000000000
 Pt         0.0000000000        0.0000000000        0.0000000000
 Pt         0.0000000000        0.0000000000        0.0000000000
 Pt         0.0000000000        0.0000000000        0.0000000000
 Pt         0.0000000000        0.0000000000        0.0000000000
 Pt         0.0000000000        0.0000000000        0.0000000000
 Pt         0.0000000000        0.0000000000        0.0000000000
 Pt         0.0000000000        0.0000000000        0.0000000000
 Pt         0.0000000000        0.0000000000        0.0000000000
 Pt         0.0000000000        0.0000000000        0.0000000000
 Pt         0.0000000000        0.0000000000        0.0000000000
 Pt         0.0000000000        0.0000000000        0.0000000000
 Pt         0.0000000000        0.0000000000        0.0000000000
 Pt         0.0000000000        0.0000000000        0.0000000000
 Pt        -0.0003336894       -0.0040558916       -0.0060833110
 Pt         0.0003232559        0.0002567576       -0.0002664457
 Pt         0.0000738954        0.0008089146       -0.0006042585
 Pt         0.0000718106        0.0022786289       -0.0010474751
 Pt         0.0010638375       -0.0005298004       -0.0051982827
 Pt        -0.0010469245       -0.0007340879        0.0004383659
 Pt         0.0038910537       -0.0024642388       -0.0003002839
 Pt         0.0018169520       -0.0014119827       -0.0007066651
 Pt        -0.0030643229        0.0012125934        0.0031291675
 Pt         0.0006034768        0.0008602836       -0.0016416073
 Pt         0.0000871238       -0.0002255857       -0.0001727264
 Pt         0.0008326275       -0.0005082521       -0.0009225707
 Pt         0.0004869704       -0.0006352606       -0.0009035501
 Pt         0.0009725816       -0.0013046016       -0.0006895775
 Pt         0.0003223593        0.0005597304       -0.0004437880
 Pt        -0.0014011387        0.0002619406       -0.0004071601
 Pt         0.0002400077       -0.0003868445        0.0011344424
 Pt         0.0014478637       -0.0007955092       -0.0007022592
 Pt         0.0032582437        0.0039018311        0.0011919749
 Pt         0.0066581938        0.0070245160        0.0098385457
 Pt         0.0036366300       -0.0003927606        0.0017716105
 Pt         0.0027068754       -0.0030508161        0.0021035229
 Pt         0.0016152310       -0.0084098699        0.0010406066
 Pt        -0.0025202435       -0.0047765080        0.0014000496
 Pt        -0.0031849010        0.0074270298        0.0057900613
 Pt        -0.0128262240        0.0027581143        0.0056652780
 Pt         0.0002495043        0.0023189390       -0.0001123094
 Pt        -0.0011182270       -0.0012284480        0.0023788923
 Pt        -0.0028398002       -0.0001791648        0.0035783518
 Pt         0.0030521243        0.0006999481        0.0016180609
 Pt        -0.0002418465        0.0011498999        0.0022319032
 Pt        -0.0002470344       -0.0007710233        0.0015958634
  O        -0.0013646031        0.0030790678       -0.0040298968
  O         0.0005118227       -0.0030044232       -0.0036578168
  H         0.0027008742        0.0020260373        0.0004660937
  H        -0.0028152344       -0.0020595728        0.0004884824
      52
 i =        1, time =        0.500, E =     -5846.9494608328
 Pt         0.0000000000        0.0000000000        0.0000000000
 Pt         0.0000000000        0.0000000000        0.0000000000
 Pt         0.0000000000        0.0000000000        0.0000000000
 Pt         0.0000000000        0.0000000000        0.0000000000
 Pt         0.0000000000        0.0000000000        0.0000000000
 Pt         0.0000000000        0.0000000000        0.0000000000
 Pt         0.0000000000        0.0000000000        0.0000000000
 Pt         0.0000000000        0.0000000000        0.0000000000
 Pt         0.0000000000        0.0000000000        0.0000000000
 Pt         0.0000000000        0.0000000000        0.0000000000
 Pt         0.0000000000        0.0000000000        0.0000000000
 Pt         0.0000000000        0.0000000000        0.0000000000
 Pt         0.0000000000        0.0000000000        0.0000000000
 Pt         0.0000000000        0.0000000000        0.0000000000
 Pt         0.0000000000        0.0000000000        0.0000000000
 Pt         0.0000000000        0.0000000000        0.0000000000
 Pt        -0.0006105244       -0.0038414518       -0.0060065433
 Pt         0.0002650043        0.0002655653       -0.0001361121
 Pt         0.0001549567        0.0008983875       -0.0003521369
 Pt        -0.0001467489        0.0024976447       -0.0012033649
 Pt         0.0008198384       -0.0004349398       -0.0051750293
 Pt        -0.0010793904       -0.0007172739        0.0002754190
 Pt         0.0038028303       -0.0023701082       -0.0003728607
 Pt         0.0020191751       -0.0011559938       -0.0005549864
 Pt        -0.0027304612        0.0011327465        0.0033924806
 Pt         0.0006225253        0.0005942891       -0.0014695699
 Pt         0.0002209101       -0.0004309320        0.0000375597
 Pt         0.0007936656       -0.0003310336       -0.0011151207
 Pt         0.0004906737       -0.0007998269       -0.0006702365
 Pt         0.0011112514       -0.0012644486       -0.0007175699
 Pt         0.0003013575        0.0003113763       -0.0004838390
 Pt        -0.0015484377        0.0000555922       -0.0004753099
 Pt         0.0002344839       -0.0001927431        0.0009444126
 Pt         0.0014615312       -0.0008884305       -0.0007927087
 Pt         0.0030149958        0.0038868307        0.0012404154
 Pt         0.0067707017        0.0069611945        0.0099797605
 Pt         0.0035800944       -0.0003603886        0.0015776581
 Pt         0.0028308980       -0.0031542047        0.0021597462
 Pt         0.0013613712       -0.0084793991        0.0012506431
 Pt        -0.0021938417       -0.0047111908        0.0014436667
 Pt        -0.0030158463        0.0073905211        0.0058329112
 Pt        -0.0129962214        0.0025837675        0.0055201702
 Pt         0.0001108046        0.0025180247       -0.0001965736
 Pt        -0.0010703870       -0.0012364633        0.0023191298
 Pt        -0.0025513410       -0.0000928290        0.0036037297
 Pt         0.0030880301        0.0007389982        0.0017066764
 Pt        -0.0003113913        0.0010277957        0.0021246228
 Pt        -0.0002691075       -0.0008263411        0.0015086610
  O         0.0018306061        0.0021032583       -0.0018118530
  O        -0.0064407634       -0.0025119582        0.0013695221
  H        -0.0017565129        0.0000115002       -0.0019699944
  H         0.0054277657        0.0006514146       -0.0044709994
      52
 i =        2, time =        1.000, E =     -5846.9492405674
 Pt         0.0000000000        0.0000000000        0.0000000000
 Pt         0.0000000000        0.0000000000        0.0000000000
 Pt         0.0000000000        0.0000000000        0.0000000000
 Pt         0.0000000000        0.0000000000        0.0000000000
 Pt         0.0000000000        0.0000000000        0.0000000000
 Pt         0.0000000000        0.0000000000        0.0000000000
 Pt         0.0000000000        0.0000000000        0.0000000000
 Pt         0.0000000000        0.0000000000        0.0000000000
 Pt         0.0000000000        0.0000000000        0.0000000000
 Pt         0.0000000000        0.0000000000        0.0000000000
 Pt         0.0000000000        0.0000000000        0.0000000000
 Pt         0.0000000000        0.0000000000        0.0000000000
 Pt         0.0000000000        0.0000000000        0.0000000000
 Pt         0.0000000000        0.0000000000        0.0000000000
 Pt         0.0000000000        0.0000000000        0.0000000000
 Pt         0.0000000000        0.0000000000        0.0000000000
 Pt        -0.0008816610       -0.0036265891       -0.0059251289
 Pt         0.0002079041        0.0002809999       -0.0000065042
 Pt         0.0002331751        0.0009881478       -0.0001056565
 Pt        -0.0003624776        0.0027111432       -0.0013560760
 Pt         0.0005727103       -0.0003464989       -0.0051510821
 Pt        -0.0011109913       -0.0007072923        0.0001219695
 Pt         0.0037121200       -0.0022845381       -0.0004361652
 Pt         0.0022181198       -0.0009066290       -0.0004071991
 Pt        -0.0024002153        0.0010553455        0.0036515700
 Pt         0.0006469961        0.0003324927       -0.0013032993
 Pt         0.0003630245       -0.0006328269        0.0002403758
 Pt         0.0007630520       -0.0001561804       -0.0013000779
 Pt         0.0004893760       -0.0009550356       -0.0004426660
 Pt         0.0012440826       -0.0012269143       -0.0007391580
 Pt         0.0002839088        0.0000741563       -0.0005184266
 Pt        -0.0016883478       -0.0001561513       -0.0005447624
 Pt         0.0002295026       -0.0000005595        0.0007607744
 Pt         0.0014737903       -0.0009756613       -0.0008885696
 Pt         0.0027719081        0.0038769108        0.0012824035
 Pt         0.0068730244        0.0069046857        0.0101118539
 Pt         0.0035214369       -0.0003318218        0.0013931415
 Pt         0.0029406127       -0.0032561748        0.0022105398
 Pt         0.0011016844       -0.0085530861        0.0014588919
 Pt        -0.0018819044       -0.0046400247        0.0014890792
 Pt        -0.0028435506        0.0073533883        0.0058638944
 Pt        -0.0131570748        0.0024055292        0.0053799961
 Pt        -0.0000269120        0.0027060653       -0.0002811629
 Pt        -0.0010151419       -0.0012438366        0.0022513890
 Pt        -0.0022605630       -0.0000113875        0.0036339191
 Pt         0.0031280786        0.0007732609        0.0017918396
 Pt        -0.0003699648        0.0009038992        0.0020204579
 Pt        -0.0002901313       -0.0008798598        0.0014235345
  O         0.0048333502        0.0010720761        0.0001952569
  O        -0.0121461630       -0.0018263901        0.0055701890
  H        -0.0059446558       -0.0019154988       -0.0041748814
  H         0.0123809568        0.0031191008       -0.0085736153
      52
 i =        3, time =        1.500, E =     -5846.9488510300
 Pt         0.0000000000        0.0000000000        0.0000000000
 Pt         0.0000000000        0.0000000000        0.0000000000
 Pt         0.0000000000        0.0000000000        0.0000000000
 Pt         0.0000000000        0.0000000000        0.0000000000
 Pt         0.0000000000        0.0000000000        0.0000000000
 Pt         0.0000000000        0.0000000000        0.0000000000
 Pt         0.0000000000        0.0000000000        0.0000000000
 Pt         0.0000000000        0.0000000000        0.0000000000
 Pt         0.0000000000        0.0000000000        0.0000000000
 Pt         0.0000000000        0.0000000000        0.0000000000
 Pt         0.0000000000        0.0000000000        0.0000000000
 Pt         0.0000000000        0.0000000000        0.0000000000
 Pt         0.0000000000        0.0000000000        0.0000000000
 Pt         0.0000000000        0.0000000000        0.0000000000
 Pt         0.0000000000        0.0000000000        0.0000000000
 Pt         0.0000000000        0.0000000000        0.0000000000
 Pt        -0.0011238354       -0.0034316098       -0.0058428717
 Pt         0.0001639050        0.0002932832        0.0001131831
 Pt         0.0002993900        0.0010699707        0.0001175731
 Pt        -0.0005460151        0.0029041538       -0.0014969349
 Pt         0.0003449804       -0.0002742061       -0.0051286725
 Pt        -0.0011335010       -0.0007112573       -0.0000082633
 Pt         0.0036128361       -0.0022132528       -0.0004819505
 Pt         0.0023955901       -0.0006787959       -0.0002755999
 Pt        -0.0020886052        0.0009893609        0.0038904041
 Pt         0.0006656126        0.0000970251       -0.0011557338
 Pt         0.0005007840       -0.0008101716        0.0004211055
 Pt         0.0007432688        0.0000070867       -0.0014657551
 Pt         0.0004868092       -0.0010873772       -0.0002348228
 Pt         0.0013585748       -0.0011952304       -0.0007488178
 Pt         0.0002659500       -0.0001377452       -0.0005445247
 Pt        -0.0018037726       -0.0003610785       -0.0006134487
 Pt         0.0002301407        0.0001699406        0.0005978411
 Pt         0.0014851219       -0.0010550035       -0.0009930153
 Pt         0.0025332714        0.0038654311        0.0013130683
 Pt         0.0069615362        0.0068665119        0.0102384030
 Pt         0.0034701870       -0.0003113455        0.0012374318
 Pt         0.0030313136       -0.0033537252        0.0022472997
 Pt         0.0008541454       -0.0086283662        0.0016598190
 Pt        -0.0016073851       -0.0045682072        0.0015378475
 Pt        -0.0026749861        0.0073159913        0.0058718782
 Pt        -0.0132959776        0.0022355476        0.0052602064
 Pt        -0.0001594433        0.0028651295       -0.0003628662
 Pt        -0.0009539095       -0.0012448880        0.0021683270
 Pt        -0.0019861381        0.0000646470        0.0036776105
 Pt         0.0031636509        0.0007931043        0.0018693840
 Pt        -0.0004193530        0.0007850891        0.0019265378
 Pt        -0.0003107723       -0.0009224869        0.0013466348
  O         0.0071719851       -0.0001423774        0.0017745772
  O        -0.0162318953       -0.0008417395        0.0086821646
  H        -0.0093303839       -0.0036294970       -0.0059292610
  H         0.0175943988        0.0052336359       -0.0115772377
      52
 i =        4, time =        2.000, E =     -5846.9484376266
 Pt         0.0000000000        0.0000000000        0.0000000000
 Pt         0.0000000000        0.0000000000        0.0000000000
 Pt         0.0000000000        0.0000000000        0.0000000000
 Pt         0.0000000000        0.0000000000        0.0000000000
 Pt         0.0000000000        0.0000000000        0.0000000000
 Pt         0.0000000000        0.0000000000        0.0000000000
 Pt         0.0000000000        0.0000000000        0.0000000000
 Pt         0.0000000000        0.0000000000        0.0000000000
 Pt         0.0000000000        0.0000000000        0.0000000000
 Pt         0.0000000000        0.0000000000        0.0000000000
 Pt         0.0000000000        0.0000000000        0.0000000000
 Pt         0.0000000000        0.0000000000        0.0000000000
 Pt         0.0000000000        0.0000000000        0.0000000000
 Pt         0.0000000000        0.0000000000        0.0000000000
 Pt         0.0000000000        0.0000000000        0.0000000000
 Pt         0.0000000000        0.0000000000        0.0000000000
 Pt        -0.0013434762       -0.0032556393       -0.0057582369
 Pt         0.0001335737        0.0002992725        0.0002267259
 Pt         0.0003545321        0.0011452822        0.0003258464
 Pt        -0.0007013719        0.0030839660       -0.0016303617
 Pt         0.0001337842       -0.0002135189       -0.0051053406
 Pt        -0.0011480628       -0.0007255564       -0.0001210817
 Pt         0.0035024122       -0.0021497175       -0.0005147924
 Pt         0.0025578251       -0.0004628502       -0.0001536069
 Pt        -0.0017856579        0.0009301704        0.0041137574
 Pt         0.0006728099       -0.0001205754       -0.0010206172
 Pt         0.0006335336       -0.0009685034        0.0005856502
 Pt         0.0007287211        0.0001614953       -0.0016201025
 Pt         0.0004836623       -0.0012064083       -0.0000370011
 Pt         0.0014598355       -0.0011626467       -0.0007500024
 Pt         0.0002461112       -0.0003347647       -0.0005630452
 Pt        -0.0019012478       -0.0005578920       -0.0006815151
 Pt         0.0002363713        0.0003185084        0.0004487905
 Pt         0.0014969217       -0.0011301002       -0.0011086600
 Pt         0.0022945017        0.0038455563        0.0013330296
 Pt         0.0070433976        0.0068451400        0.0103533153
 Pt         0.0034265324       -0.0002973467        0.0011007361
 Pt         0.0031140519       -0.0034492164        0.0022731494
 Pt         0.0006188109       -0.0087055417        0.0018612902
 Pt        -0.0013567395       -0.0044981552        0.0015922143
 Pt        -0.0025081272        0.0072747177        0.0058571685
 Pt        -0.0134185998        0.0020728315        0.0051540828
 Pt        -0.0002911866        0.0030018325       -0.0004457995
 Pt        -0.0008912300       -0.0012371729        0.0020704813
 Pt        -0.0017247449        0.0001401424        0.0037376784
 Pt         0.0031925176        0.0008003620        0.0019440096
 Pt        -0.0004679570        0.0006703802        0.0018387029
 Pt        -0.0003292658       -0.0009551345        0.0012739346
  O         0.0085726354       -0.0015309564        0.0027928575
  O        -0.0185064200        0.0004257606        0.0106204154
  H        -0.0117196798       -0.0050906329       -0.0070835501
  H         0.0209442924        0.0069575065       -0.0134091178
      52
 i =        5, time =        2.500, E =     -5846.9481261955
 Pt         0.0000000000        0.0000000000        0.0000000000
 Pt         0.0000000000        0.0000000000        0.0000000000
 Pt         0.0000000000        0.0000000000        0.0000000000
 Pt         0.0000000000        0.0000000000        0.0000000000
 Pt         0.0000000000        0.0000000000        0.0000000000
 Pt         0.0000000000        0.0000000000        0.0000000000
 Pt         0.0000000000        0.0000000000        0.0000000000
 Pt         0.0000000000        0.0000000000        0.0000000000
 Pt         0.0000000000        0.0000000000        0.0000000000
 Pt         0.0000000000        0.0000000000        0.0000000000
 Pt         0.0000000000        0.0000000000        0.0000000000
 Pt         0.0000000000        0.0000000000        0.0000000000
 Pt         0.0000000000        0.0000000000        0.0000000000
 Pt         0.0000000000        0.0000000000        0.0000000000
 Pt         0.0000000000        0.0000000000        0.0000000000
 Pt         0.0000000000        0.0000000000        0.0000000000
 Pt        -0.0015499723       -0.0030968778       -0.0056740326
 Pt         0.0001144607        0.0002914627        0.0003355305
 Pt         0.0004033583        0.0012136308        0.0005243850
 Pt        -0.0008340995        0.0032597611       -0.0017599731
 Pt        -0.0000604316       -0.0001558976       -0.0050781062
 Pt        -0.0011575247       -0.0007401738       -0.0002276698
 Pt         0.0033837035       -0.0020841765       -0.0005469049
 Pt         0.0027121413       -0.0002507143       -0.0000376776
 Pt        -0.0014860647        0.0008705536        0.0043227756
 Pt         0.0006614115       -0.0003283248       -0.0008912910
 Pt         0.0007566809       -0.0011124134        0.0007401553
 Pt         0.0007089404        0.0003102440       -0.0017735786
 Pt         0.0004842534       -0.0013243503        0.0001589966
 Pt         0.0015525265       -0.0011244535       -0.0007514910
 Pt         0.0002226691       -0.0005327797       -0.0005809756
 Pt        -0.0019908092       -0.0007392087       -0.0007446733
 Pt         0.0002469018        0.0004453938        0.0003078669
 Pt         0.0015112280       -0.0012080929       -0.0012254509
 Pt         0.0020516879        0.0038111420        0.0013477535
 Pt         0.0071245120        0.0068335593        0.0104584611
 Pt         0.0033877835       -0.0002865563        0.0009787631
 Pt         0.0032048342       -0.0035422003        0.0022977331
 Pt         0.0003991769       -0.0087803349        0.0020682481
 Pt        -0.0011138597       -0.0044338136        0.0016455972
 Pt        -0.0023434099        0.0072214864        0.0058330587
 Pt        -0.0135300093        0.0019188770        0.0050563109
 Pt        -0.0004234491        0.0031226411       -0.0005263444
 Pt        -0.0008335443       -0.0012191450        0.0019695862
 Pt        -0.0014732316        0.0002191026        0.0038050941
 Pt         0.0032137032        0.0008011469        0.0020174121
 Pt        -0.0005269819        0.0005589885        0.0017564493
 Pt        -0.0003412120       -0.0009783267        0.0012058930
  O         0.0087164040       -0.0031349170        0.0031121969
  O        -0.0185923747        0.0020715206        0.0111793169
  H        -0.0128917116       -0.0062787359       -0.0074723421
  H         0.0221407548        0.0082113341       -0.0138968292
      52
 i =        6, time =        3.000, E =     -5846.9479916991
 Pt         0.0000000000        0.0000000000        0.0000000000
 Pt         0.0000000000        0.0000000000        0.0000000000
 Pt         0.0000000000        0.0000000000        0.0000000000
 Pt         0.0000000000        0.0000000000        0.0000000000
 Pt         0.0000000000        0.0000000000        0.0000000000
 Pt         0.0000000000        0.0000000000        0.0000000000
 Pt         0.0000000000        0.0000000000        0.0000000000
 Pt         0.0000000000        0.0000000000        0.0000000000
 Pt         0.0000000000        0.0000000000        0.0000000000
 Pt         0.0000000000        0.0000000000        0.0000000000
 Pt         0.0000000000        0.0000000000        0.0000000000
 Pt         0.0000000000        0.0000000000        0.0000000000
 Pt         0.0000000000        0.0000000000        0.0000000000
 Pt         0.0000000000        0.0000000000        0.0000000000
 Pt         0.0000000000        0.0000000000        0.0000000000
 Pt         0.0000000000        0.0000000000        0.0000000000
 Pt        -0.0017672784       -0.0029249292       -0.0055841449
 Pt         0.0000934932        0.0002966935        0.0004475745
 Pt         0.0004597931        0.0012920270        0.0007304994
 Pt        -0.0009891607        0.0034430626       -0.0018932406
 Pt        -0.0002754161       -0.0000992351       -0.0050392741
 Pt        -0.0011771172       -0.0007580626       -0.0003362757
 Pt         0.0032603159       -0.0020223031       -0.0005820169
 Pt         0.0028797362       -0.0000304479        0.0000840433
 Pt        -0.0011799448        0.0008032768        0.0045294660
 Pt         0.0006601188       -0.0005478414       -0.0007548563
 Pt         0.0009006014       -0.0012702854        0.0008964845
 Pt         0.0006911142        0.0004602993       -0.0019341716
 Pt         0.0004724097       -0.0014497504        0.0003660630
 Pt         0.0016553614       -0.0010795974       -0.0007565337
 Pt         0.0002086464       -0.0007314618       -0.0005974498
 Pt        -0.0020921227       -0.0009297944       -0.0008021056
 Pt         0.0002575848        0.0005756516        0.0001644852
 Pt         0.0015313647       -0.0012845732       -0.0013468011
 Pt         0.0018060422        0.0037835715        0.0013572907
 Pt         0.0072003687        0.0068287664        0.0105351587
 Pt         0.0033413999       -0.0002860473        0.0008545964
 Pt         0.0032916138       -0.0036364497        0.0023277067
 Pt         0.0001610471       -0.0088690686        0.0022868348
 Pt        -0.0008670107       -0.0043609832        0.0016986468
 Pt        -0.0021675505        0.0071629853        0.0058046057
 Pt        -0.0136464868        0.0017430404        0.0049539512
 Pt        -0.0005678558        0.0032391064       -0.0006121828
 Pt        -0.0007695977       -0.0011981571        0.0018702820
 Pt        -0.0012050145        0.0002903541        0.0038770005
 Pt         0.0032486754        0.0008031155        0.0020915485
 Pt        -0.0005833464        0.0004404490        0.0016731075
 Pt        -0.0003367540       -0.0010007074        0.0011367952
  O         0.0076664374       -0.0048832087        0.0028183596
  O        -0.0166856234        0.0040092664        0.0105365005
  H        -0.0129627531       -0.0072177422       -0.0071605532
  H         0.0214265647        0.0090300564       -0.0132062382
      52
 i =        7, time =        3.500, E =     -5846.9480320458
 Pt         0.0000000000        0.0000000000        0.0000000000
 Pt         0.0000000000        0.0000000000        0.0000000000
 Pt         0.0000000000        0.0000000000        0.0000000000
 Pt         0.0000000000        0.0000000000        0.0000000000
 Pt         0.0000000000        0.0000000000        0.0000000000
 Pt         0.0000000000        0.0000000000        0.0000000000
 Pt         0.0000000000        0.0000000000        0.0000000000
 Pt         0.0000000000        0.0000000000        0.0000000000
 Pt         0.0000000000        0.0000000000        0.0000000000
 Pt         0.0000000000        0.0000000000        0.0000000000
 Pt         0.0000000000        0.0000000000        0.0000000000
 Pt         0.0000000000        0.0000000000        0.0000000000
 Pt         0.0000000000        0.0000000000        0.0000000000
 Pt         0.0000000000        0.0000000000        0.0000000000
 Pt         0.0000000000        0.0000000000        0.0000000000
 Pt         0.0000000000        0.0000000000        0.0000000000
 Pt        -0.0020024325       -0.0027465403       -0.0054889057
 Pt         0.0000728751        0.0002965587        0.0005656759
 Pt         0.0005280278        0.0013729776        0.0009493568
 Pt        -0.0011523713        0.0036400500       -0.0020357682
 Pt        -0.0004984173       -0.0000336343       -0.0049895272
 Pt        -0.0012009425       -0.0007677975       -0.0004551532
 Pt         0.0031284885       -0.0019496784       -0.0006259999
 Pt         0.0030624318        0.0002069998        0.0002146501
 Pt        -0.0008594420        0.0007266965        0.0047364641
 Pt         0.0006492794       -0.0007805309       -0.0006049205
 Pt         0.0010464341       -0.0014371291        0.0010591477
 Pt         0.0006629748        0.0006175251       -0.0021086486
 Pt         0.0004589277       -0.0015967912        0.0005889297
 Pt         0.0017697847       -0.0010263932       -0.0007720527
 Pt         0.0001941056       -0.0009521456       -0.0006164730
 Pt        -0.0022072901       -0.0011151496       -0.0008539148
 Pt         0.0002735768        0.0007000827        0.0000133225
 Pt         0.0015554833       -0.0013668740       -0.0014704617
 Pt         0.0015584103        0.0037442866        0.0013631628
 Pt         0.0072817402        0.0068272020        0.0105738790
 Pt         0.0032937259       -0.0002902299        0.0007218671
 Pt         0.0033917165       -0.0037313264        0.0023672351
 Pt        -0.0000827455       -0.0089649481        0.0025161628
 Pt        -0.0006023031       -0.0042853020        0.0017454391
 Pt        -0.0019816400        0.0070948529        0.0057818681
 Pt        -0.0137681654        0.0015498029        0.0048420968
 Pt        -0.0007249233        0.0033561919       -0.0007019715
 Pt        -0.0007096795       -0.0011704408        0.0017795873
 Pt        -0.0009224501        0.0003639703        0.0039474584
 Pt         0.0032833975        0.0008071857        0.0021654014
 Pt        -0.0006551380        0.0003233878        0.0015871009
 Pt        -0.0003199089       -0.0010237525        0.0010682296
  O         0.0055097277       -0.0067986640        0.0020076675
  O        -0.0129959622        0.0062337848        0.0088866802
  H        -0.0120154718       -0.0079109121       -0.0062620188
  H         0.0190038038        0.0094452846       -0.0114938280
      52
 i =        8, time =        4.000, E =     -5846.9481641172
 Pt         0.0000000000        0.0000000000        0.0000000000
 Pt         0.0000000000        0.0000000000        0.0000000000
 Pt         0.0000000000        0.0000000000        0.0000000000
 Pt         0.0000000000        0.0000000000        0.0000000000
 Pt         0.0000000000        0.0000000000        0.0000000000
 Pt         0.0000000000        0.0000000000        0.0000000000
 Pt         0.0000000000        0.0000000000        0.0000000000
 Pt         0.0000000000        0.0000000000        0.0000000000
 Pt         0.0000000000        0.0000000000        0.0000000000
 Pt         0.0000000000        0.0000000000        0.0000000000
 Pt         0.0000000000        0.0000000000        0.0000000000
 Pt         0.0000000000        0.0000000000        0.0000000000
 Pt         0.0000000000        0.0000000000        0.0000000000
 Pt         0.0000000000        0.0000000000        0.0000000000
 Pt         0.0000000000        0.0000000000        0.0000000000
 Pt         0.0000000000        0.0000000000        0.0000000000
 Pt        -0.0022524102       -0.0025614432       -0.0053860074
 Pt         0.0000524705        0.0002958185        0.0006893232
 Pt         0.0006094930        0.0014556846        0.0011784828
 Pt        -0.0013208012        0.0038471221       -0.0021869150
 Pt        -0.0007286980        0.0000363554       -0.0049297016
 Pt        -0.0012295948       -0.0007687681       -0.0005819983
 Pt         0.0029923116       -0.0018681284       -0.0006760693
 Pt         0.0032566241        0.0004577639        0.0003530821
 Pt        -0.0005334553        0.0006423933        0.0049448585
 Pt         0.0006333822       -0.0010231390       -0.0004414278
 Pt         0.0011921445       -0.0016121006        0.0012265395
 Pt         0.0006264986        0.0007803573       -0.0022929017
 Pt         0.0004432867       -0.0017649585        0.0008239429
 Pt         0.0018964928       -0.0009689879       -0.0007967462
 Pt         0.0001800274       -0.0011884776       -0.0006355093
 Pt        -0.0023330407       -0.0012917421       -0.0009001414
 Pt         0.0002950386        0.0008158997       -0.0001445594
 Pt         0.0015843351       -0.0014514954       -0.0015962539
 Pt         0.0013161723        0.0036949760        0.0013661085