      49
 i =        6, E =     -5814.4635858760
 Pt         0.0000000000        0.0000000000        5.0000000000
 Pt         1.4060005200        2.4352643300        5.0000000000
 Pt         2.8120010300        0.0000000000        5.0000000000
 Pt         4.2180015500        2.4352643300        5.0000000000
 Pt         2.8120010300        4.8705286600        5.0000000000
 Pt         4.2180015500        7.3057929900        5.0000000000
 Pt         5.6240020700        4.8705286600        5.0000000000
 Pt         7.0300025900        7.3057929900        5.0000000000
 Pt         5.6240020700        0.0000000000        5.0000000000
 Pt         7.0300025900        2.4352643300        5.0000000000
 Pt         8.4360031000        0.0000000000        5.0000000000
 Pt         9.8420036200        2.4352643300        5.0000000000
 Pt         8.4360031000        4.8705286600        5.0000000000
 Pt         9.8420036200        7.3057929900        5.0000000000
 Pt        11.2480041400        4.8705286600        5.0000000000
 Pt        12.6540046500        7.3057929900        5.0000000000
 Pt         5.6235844755        3.2494127878        7.3384306734
 Pt         4.2179742344        0.8117521396        7.3343170237
 Pt         2.8124795864        3.2464005582        7.3367494500
 Pt         8.4348908087        8.1169257691        7.3311180224
 Pt         7.0253846734        5.6782262406        7.3307712750
 Pt         5.6236507685        8.1180810087        7.3306452541
 Pt        11.2516560685        3.2474101476        7.3359823204
 Pt         9.8414393273        0.8057839283        7.3349435529
 Pt         8.4339399810        3.2437041159        7.3325326040
 Pt        14.0610756332        8.1160147462        7.3393467242
 Pt        12.6576578295        5.6798816321        7.3329651214
 Pt        11.2504762866        8.1170429991        7.3286900780
 Pt         1.4064773958        0.8105626791        7.3327279533
 Pt         4.2176789744        5.6812093193        7.3329218958
 Pt         7.0318490325        0.8062822942        7.3336610563
 Pt         9.8454502698        5.6798797589        7.3264025530
 Pt         2.8144883634        1.6163584782        9.6787291622
 Pt         4.2225717771        4.0513131628        9.6735841791
 Pt         5.6160215731        1.6143454900        9.6633309145
 Pt         7.0222698478        4.0588041881        9.6772620130
 Pt         5.6290325992        6.4885055633        9.6695799446
 Pt         7.0347997883        8.9225640860        9.6749482778
 Pt         8.4370320236        6.5027222051        9.6529878233
 Pt         9.8417533220        8.9223546660        9.6682536663
 Pt         8.4368283167        1.6076413012        9.6775275246
 Pt         9.8529346522        4.0598153036        9.6692861365
 Pt        11.2609463436        1.6117638149        9.6637240333
 Pt        12.6558374233        4.0491005752        9.6709012703
 Pt        11.2470082152        6.4883683792        9.6647258542
 Pt        12.6553817144        8.9238536188        9.6716043993
 Pt        14.0604272921        6.4890131053        9.6705842138
 Pt        15.4673701338        8.9234756667        9.6721535315
  H         8.4326452198        3.2463318346       10.6609385439
